 Gaussian 16, Revision A.03,
 Gaussian 16:  ES64L-G16RevA.03 25-Dec-2016

 ----------------
 # 6-31g(d) wb97x
 ----------------

 ------------------------
 tmpdir/M2_conf_0_116.gjf
 ------------------------
 Symbolic Z-matrix:
 Charge =  0 Multiplicity = 1

                         Standard orientation:
 ---------------------------------------------------------------------
 Center     Atomic      Atomic             Coordinates (Angstroms)
 Number     Number       Type             X           Y           Z
 ---------------------------------------------------------------------
      1          6           0        0.804159    0.477311   -0.004557
      2          6           0       -0.580500    0.628552   -0.000590
      3          6           0       -1.433955   -0.466051    0.001800
      4          1           0        1.418323    1.403548    0.023209
      5          8           0        1.308698   -0.643890    0.000239
      6          1           0       -1.027502    1.620460   -0.007287
      7          1           0       -2.509365   -0.301037    0.003553
      8          1           0       -1.089267   -1.410723   -0.001308
 ---------------------------------------------------------------------

 SCF Done:  E(RwB97X) =  -191.837884659     A.U. after   15 cycles

 The electronic state is 1-A.
 Alpha  occ. eigenvalues --  -19.20749 -10.35450 -10.29988 -10.28762  -1.15863
 Alpha  occ. eigenvalues --   -0.92331  -0.79717  -0.66514  -0.63111  -0.55668
 Alpha  occ. eigenvalues --   -0.52388  -0.50539  -0.49359  -0.37193  -0.35817
 Alpha virt. eigenvalues --    0.00969   0.17414   0.19952   0.23703   0.26765
 Alpha virt. eigenvalues --    0.30247   0.34945   0.41075   0.46582   0.61898
 Alpha virt. eigenvalues --    0.63463   0.67894   0.68740   0.70540   0.74195

 Mulliken charges:
               1
     1  C    0.213932
     2  C   -0.190922
     3  C   -0.298136
     4  H    0.131214
     5  O   -0.414415
     6  H    0.167368
     7  H    0.179416
     8  H    0.211543
 Sum of Mulliken charges =  -0.00000

 Dipole moment (field-independent basis, Debye):
    X=             -2.1945    Y=              1.6960    Z=             -0.0045  Tot=              2.7734
 Quadrupole moment (field-independent basis, Debye-Ang):
   XX=            -23.2926   YY=            -21.8452   ZZ=            -24.3151
   XY=              3.1624   XZ=              0.0059   YZ=             -0.0025

 Normal termination of Gaussian 16 at Wed Jun  5 17:00:07 2019.
