 Gaussian 16, Revision A.03,
 Gaussian 16:  ES64L-G16RevA.03 25-Dec-2016

 ----------------
 # 6-31g(d) wb97x
 ----------------

 ------------------------
 tmpdir/M2_conf_1_161.gjf
 ------------------------
 Symbolic Z-matrix:
 Charge =  0 Multiplicity = 1

                         Standard orientation:
 ---------------------------------------------------------------------
 Center     Atomic      Atomic             Coordinates (Angstroms)
 Number     Number       Type             X           Y           Z
 ---------------------------------------------------------------------
      1          6           0       -0.706416   -0.009386   -0.002961
      2          6           0        0.694389    0.006861   -0.000847
      3          1           0       -1.143250   -0.916033   -0.003029
      4          1           0       -1.297426    0.898506    0.017578
      5          1           0        1.251401   -0.887089    0.014574
      6          1           0        1.261438    0.919765   -0.006275
 ---------------------------------------------------------------------

 SCF Done:  E(RwB97X) =  -78.5451647501     A.U. after   13 cycles

 The electronic state is 1-A.
 Alpha  occ. eigenvalues --  -10.27101 -10.26767  -0.87487  -0.70978  -0.58041
 Alpha  occ. eigenvalues --   -0.51072  -0.47195  -0.35520
 Alpha virt. eigenvalues --    0.09759   0.22563   0.25430   0.26967   0.34919
 Alpha virt. eigenvalues --    0.40678   0.60129   0.65855   0.66685   0.74484
 Alpha virt. eigenvalues --    0.75769   0.77084   0.99951   1.00652   1.06919

 Mulliken charges:
               1
     1  C   -0.330786
     2  C   -0.338386
     3  H    0.170074
     4  H    0.168230
     5  H    0.167017
     6  H    0.163851
 Sum of Mulliken charges =   0.00000

 Dipole moment (field-independent basis, Debye):
    X=              0.0120    Y=             -0.0364    Z=              0.0217  Tot=              0.0440
 Quadrupole moment (field-independent basis, Debye-Ang):
   XX=            -11.7786   YY=            -11.9769   ZZ=            -15.1693
   XY=             -0.0938   XZ=             -0.0095   YZ=              0.0006

 Normal termination of Gaussian 16 at Wed Jun  5 17:02:33 2019.
