 Gaussian 16, Revision A.03,
 Gaussian 16:  ES64L-G16RevA.03 25-Dec-2016

 ----------------
 # 6-31g(d) wb97x
 ----------------

 ------------------------
 tmpdir/M2_conf_2_190.gjf
 ------------------------
 Symbolic Z-matrix:
 Charge =  0 Multiplicity = 1

                         Standard orientation:
 ---------------------------------------------------------------------
 Center     Atomic      Atomic             Coordinates (Angstroms)
 Number     Number       Type             X           Y           Z
 ---------------------------------------------------------------------
      1          6           0       -0.731937    0.479779   -0.001202
      2          7           0        0.587809    0.682331   -0.000431
      3          6           0        1.361484   -0.401691   -0.003892
      4          8           0       -1.248381   -0.632569    0.002445
      5          1           0       -1.349585    1.376926   -0.000736
      6          1           0        1.010602   -1.350028   -0.011097
      7          1           0        2.434092   -0.211192    0.025850
 ---------------------------------------------------------------------

 SCF Done:  E(RwB97X) =  -207.876873787     A.U. after   17 cycles

 The electronic state is 1-A.
 Alpha  occ. eigenvalues --  -19.21498 -14.42974 -10.37734 -10.35428  -1.18295
 Alpha  occ. eigenvalues --   -1.05529  -0.84014  -0.69827  -0.64807  -0.57279
 Alpha  occ. eigenvalues --   -0.54711  -0.53846  -0.41768  -0.40458  -0.36757
 Alpha virt. eigenvalues --   -0.01092   0.15406   0.21920   0.24240   0.27973
 Alpha virt. eigenvalues --    0.33201   0.37821   0.46361   0.60086   0.63391
 Alpha virt. eigenvalues --    0.66705   0.68658   0.75041   0.77790   0.80359

 Mulliken charges:
               1
     1  C    0.291235
     2  N   -0.354698
     3  C   -0.105780
     4  O   -0.404455
     5  H    0.158667
     6  H    0.216927
     7  H    0.198103
 Sum of Mulliken charges =  -0.00000

 Dipole moment (field-independent basis, Debye):
    X=              1.9467    Y=             -0.1230    Z=             -0.0075  Tot=              1.9506
 Quadrupole moment (field-independent basis, Debye-Ang):
   XX=            -21.5361   YY=            -23.6780   ZZ=            -22.5254
   XY=             -5.4861   XZ=              0.0353   YZ=             -0.0009

 Normal termination of Gaussian 16 at Wed Jun  5 17:05:02 2019.
