 Gaussian 16, Revision A.03,
 Gaussian 16:  ES64L-G16RevA.03 25-Dec-2016

 ----------------
 # 6-31g(d) wb97x
 ----------------

 -----------------------
 tmpdir/M2_conf_2_49.gjf
 -----------------------
 Symbolic Z-matrix:
 Charge =  0 Multiplicity = 1

                         Standard orientation:
 ---------------------------------------------------------------------
 Center     Atomic      Atomic             Coordinates (Angstroms)
 Number     Number       Type             X           Y           Z
 ---------------------------------------------------------------------
      1          1           0        1.103731   -0.902714   -0.467119
      2          6           0        0.707899   -0.000081    0.011098
      3          7           0       -0.744600    0.001845   -0.113067
      4          1           0        1.134538    0.892181   -0.472926
      5          1           0        1.013961   -0.016296    1.075033
      6          1           0       -1.127636    0.849929    0.303846
      7          1           0       -1.159784   -0.835530    0.286049
 ---------------------------------------------------------------------

 SCF Done:  E(RwB97X) =  -95.8213095661     A.U. after   13 cycles

 The electronic state is 1-A.
 Alpha  occ. eigenvalues --  -14.37965 -10.28052  -0.99301  -0.77374  -0.60117
 Alpha  occ. eigenvalues --   -0.53455  -0.50539  -0.47090  -0.32099
 Alpha virt. eigenvalues --    0.18423   0.24216   0.25497   0.27586   0.29066
 Alpha virt. eigenvalues --    0.34063   0.66036   0.67694   0.69705   0.84784
 Alpha virt. eigenvalues --    0.87539   0.89446   0.97779   1.02491   1.04680

 Mulliken charges:
               1
     1  H    0.162740
     2  C   -0.327539
     3  N   -0.743900
     4  H    0.162860
     5  H    0.128412
     6  H    0.307490
     7  H    0.309937
 Sum of Mulliken charges =   0.00000

 Dipole moment (field-independent basis, Debye):
    X=              0.1666    Y=             -0.0153    Z=              1.3506  Tot=              1.3609
 Quadrupole moment (field-independent basis, Debye-Ang):
   XX=            -13.6031   YY=            -12.1127   ZZ=            -15.2755
   XY=              0.0773   XZ=             -2.0494   YZ=              0.0220

 Normal termination of Gaussian 16 at Wed Jun  5 17:03:52 2019.
