 Gaussian 16, Revision A.03,
 Gaussian 16:  ES64L-G16RevA.03 25-Dec-2016

 ----------------
 # 6-31g(d) wb97x
 ----------------

 ------------------------
 tmpdir/M2_conf_1_123.gjf
 ------------------------
 Symbolic Z-matrix:
 Charge =  0 Multiplicity = 1

                         Standard orientation:
 ---------------------------------------------------------------------
 Center     Atomic      Atomic             Coordinates (Angstroms)
 Number     Number       Type             X           Y           Z
 ---------------------------------------------------------------------
      1          6           0       -0.226465    0.437088    0.000234
      2          6           0        1.163147   -0.140583   -0.000134
      3          1           0       -0.364275    1.433198   -0.000704
      4          8           0       -1.233751   -0.293593    0.000024
      5          1           0        1.909715    0.658239   -0.006314
      6          1           0        1.349485   -0.766072   -0.883105
      7          1           0        1.354990   -0.755654    0.889331
 ---------------------------------------------------------------------

 SCF Done:  E(RwB97X) =  -153.774319062     A.U. after   14 cycles

 The electronic state is 1-A.
 Alpha  occ. eigenvalues --  -19.21255 -10.35830 -10.28006  -1.15111  -0.88099
 Alpha  occ. eigenvalues --   -0.72368  -0.58928  -0.55073  -0.53990  -0.49824
 Alpha  occ. eigenvalues --   -0.45421  -0.35641
 Alpha virt. eigenvalues --    0.06197   0.20867   0.22502   0.27209   0.28315
 Alpha virt. eigenvalues --    0.34936   0.36728   0.63216   0.63513   0.67936
 Alpha virt. eigenvalues --    0.72157   0.75818   0.83131   0.87504   0.96230

 Mulliken charges:
               1
     1  C    0.226152
     2  C   -0.561906
     3  H    0.155606
     4  O   -0.396977
     5  H    0.165159
     6  H    0.206050
     7  H    0.205915
 Sum of Mulliken charges =   0.00000

 Dipole moment (field-independent basis, Debye):
    X=              2.5093    Y=              1.2356    Z=              0.0011  Tot=              2.7970
 Quadrupole moment (field-independent basis, Debye-Ang):
   XX=            -20.6755   YY=            -17.3304   ZZ=            -17.4548
   XY=             -1.4014   XZ=              0.0039   YZ=              0.0012

 Normal termination of Gaussian 16 at Wed Jun  5 17:02:35 2019.
