 Gaussian 16, Revision A.03,
 Gaussian 16:  ES64L-G16RevA.03 25-Dec-2016

 ----------------
 # 6-31g(d) wb97x
 ----------------

 ------------------------
 tmpdir/M2_conf_1_182.gjf
 ------------------------
 Symbolic Z-matrix:
 Charge =  0 Multiplicity = 1

                         Standard orientation:
 ---------------------------------------------------------------------
 Center     Atomic      Atomic             Coordinates (Angstroms)
 Number     Number       Type             X           Y           Z
 ---------------------------------------------------------------------
      1          6           0       -0.803183    0.483771   -0.000642
      2          6           0        0.572528    0.658796   -0.000130
      3          6           0        1.396474   -0.462038   -0.000516
      4          8           0       -1.255201   -0.660265   -0.000103
      5          1           0       -1.467958    1.341399    0.000293
      6          1           0        0.997767    1.658173    0.005631
      7          1           0        2.480175   -0.352720   -0.005039
      8          1           0        1.036709   -1.447911    0.007670
 ---------------------------------------------------------------------

 SCF Done:  E(RwB97X) =  -191.838921780     A.U. after   15 cycles

 The electronic state is 1-A.
 Alpha  occ. eigenvalues --  -19.20267 -10.34928 -10.30349 -10.28726  -1.15697
 Alpha  occ. eigenvalues --   -0.92038  -0.79397  -0.66636  -0.63002  -0.55549
 Alpha  occ. eigenvalues --   -0.52038  -0.50456  -0.49022  -0.36905  -0.35596
 Alpha virt. eigenvalues --    0.01086   0.17413   0.20456   0.23596   0.26621
 Alpha virt. eigenvalues --    0.29877   0.35015   0.41270   0.46382   0.62042
 Alpha virt. eigenvalues --    0.63662   0.68769   0.69002   0.70536   0.74573

 Mulliken charges:
               1
     1  C    0.212335
     2  C   -0.194935
     3  C   -0.300478
     4  O   -0.417498
     5  H    0.137949
     6  H    0.170259
     7  H    0.176487
     8  H    0.215881
 Sum of Mulliken charges =   0.00000

 Dipole moment (field-independent basis, Debye):
    X=              2.0411    Y=              1.7429    Z=              0.0061  Tot=              2.6841
 Quadrupole moment (field-independent basis, Debye-Ang):
   XX=            -23.1662   YY=            -21.7086   ZZ=            -24.3270
   XY=             -3.3498   XZ=              0.0019   YZ=             -0.0005

 Normal termination of Gaussian 16 at Wed Jun  5 17:02:58 2019.
