 Gaussian 16, Revision A.03,
 Gaussian 16:  ES64L-G16RevA.03 25-Dec-2016

 ----------------
 # 6-31g(d) wb97x
 ----------------

 ------------------------
 tmpdir/M2_conf_1_191.gjf
 ------------------------
 Symbolic Z-matrix:
 Charge =  0 Multiplicity = 1

                         Standard orientation:
 ---------------------------------------------------------------------
 Center     Atomic      Atomic             Coordinates (Angstroms)
 Number     Number       Type             X           Y           Z
 ---------------------------------------------------------------------
      1          6           0        0.572701   -0.014504   -0.003047
      2          1           0        1.048238    0.961138    0.005975
      3          1           0        1.132651   -0.856454    0.007001
      4          8           0       -0.702137   -0.002208    0.000663
 ---------------------------------------------------------------------

 SCF Done:  E(RwB97X) =  -114.452410459     A.U. after   13 cycles

 The electronic state is 1-A.
 Alpha  occ. eigenvalues --  -19.23308 -10.36638  -1.14658  -0.78016  -0.61637
 Alpha  occ. eigenvalues --   -0.54273  -0.48021  -0.37030
 Alpha virt. eigenvalues --    0.04236   0.21594   0.28701   0.31095   0.62441
 Alpha virt. eigenvalues --    0.68443   0.73941   0.75202   0.97297   0.97700
 Alpha virt. eigenvalues --    1.05574   1.07731   1.17508   1.47033   1.58969

 Mulliken charges:
               1
     1  C    0.047128
     2  H    0.150279
     3  H    0.170676
     4  O   -0.368083
 Sum of Mulliken charges =   0.00000

 Dipole moment (field-independent basis, Debye):
    X=              2.6217    Y=             -0.0764    Z=              0.0024  Tot=              2.6228
 Quadrupole moment (field-independent basis, Debye-Ang):
   XX=            -11.6517   YY=            -11.2370   ZZ=            -11.4584
   XY=             -0.1748   XZ=              0.0058   YZ=              0.0011

 Normal termination of Gaussian 16 at Wed Jun  5 17:03:00 2019.
