 Gaussian 16, Revision A.03,
 Gaussian 16:  ES64L-G16RevA.03 25-Dec-2016

 ----------------
 # 6-31g(d) wb97x
 ----------------

 -----------------------
 tmpdir/M2_conf_0_67.gjf
 -----------------------
 Symbolic Z-matrix:
 Charge =  0 Multiplicity = 1

                         Standard orientation:
 ---------------------------------------------------------------------
 Center     Atomic      Atomic             Coordinates (Angstroms)
 Number     Number       Type             X           Y           Z
 ---------------------------------------------------------------------
      1          6           0        1.210283   -0.186645   -0.002388
      2          6           0       -0.118259    0.540824   -0.011496
      3          6           0       -1.276968   -0.236104   -0.002357
      4          1           0        2.017809    0.351260   -0.602558
      5          1           0        1.061406   -1.227673   -0.351319
      6          1           0        1.560191   -0.255832    1.036595
      7          1           0       -0.149249    1.550305    0.014732
      8          1           0       -1.195897   -1.320973   -0.035631
      9          1           0       -2.184596    0.194462    0.035628
 ---------------------------------------------------------------------

 SCF Done:  E(RwB97X) =  -117.848227222     A.U. after   14 cycles

 The electronic state is 1-A.
 Alpha  occ. eigenvalues --  -10.27227 -10.26768 -10.25478  -0.90625  -0.79773
 Alpha  occ. eigenvalues --   -0.68505  -0.57942  -0.51519  -0.50977  -0.46865
 Alpha  occ. eigenvalues --   -0.45582  -0.33662
 Alpha virt. eigenvalues --    0.10436   0.20956   0.23671   0.25311   0.27782
 Alpha virt. eigenvalues --    0.28514   0.30648   0.38272   0.44507   0.61131
 Alpha virt. eigenvalues --    0.64779   0.65390   0.70441   0.73100   0.75801

 Mulliken charges:
               1
     1  C   -0.507564
     2  C   -0.097828
     3  C   -0.365656
     4  H    0.153472
     5  H    0.165797
     6  H    0.173475
     7  H    0.163529
     8  H    0.151041
     9  H    0.163733
 Sum of Mulliken charges =  -0.00000

 Dipole moment (field-independent basis, Debye):
    X=              0.2538    Y=              0.1172    Z=              0.1147  Tot=              0.3021
 Quadrupole moment (field-independent basis, Debye-Ang):
   XX=            -19.0962   YY=            -18.3093   ZZ=            -21.4408
   XY=              0.1943   XZ=             -0.0100   YZ=              0.0257

 Normal termination of Gaussian 16 at Wed Jun  5 16:59:56 2019.
