 Gaussian 16, Revision A.03,
 Gaussian 16:  ES64L-G16RevA.03 25-Dec-2016

 ----------------
 # 6-31g(d) wb97x
 ----------------

 -----------------------
 tmpdir/M2_conf_0_68.gjf
 -----------------------
 Symbolic Z-matrix:
 Charge =  0 Multiplicity = 1

                         Standard orientation:
 ---------------------------------------------------------------------
 Center     Atomic      Atomic             Coordinates (Angstroms)
 Number     Number       Type             X           Y           Z
 ---------------------------------------------------------------------
      1          6           0       -0.799612    0.478530   -0.000798
      2          6           0        0.586243    0.643948   -0.005268
      3          6           0        1.417400   -0.476518   -0.000007
      4          1           0       -1.430737    1.363421   -0.002855
      5          8           0       -1.293393   -0.642436    0.000901
      6          1           0        1.026000    1.647848    0.028028
      7          1           0        2.497596   -0.343417   -0.008809
      8          1           0        1.030099   -1.404126    0.012862
 ---------------------------------------------------------------------

 SCF Done:  E(RwB97X) =  -191.837365610     A.U. after   15 cycles

 The electronic state is 1-A.
 Alpha  occ. eigenvalues --  -19.20538 -10.35079 -10.30006 -10.28899  -1.16026
 Alpha  occ. eigenvalues --   -0.92140  -0.79597  -0.66618  -0.63175  -0.55630
 Alpha  occ. eigenvalues --   -0.52310  -0.50582  -0.49430  -0.37043  -0.35732
 Alpha virt. eigenvalues --    0.01069   0.17342   0.20215   0.23990   0.26814
 Alpha virt. eigenvalues --    0.30354   0.35050   0.40980   0.46180   0.62019
 Alpha virt. eigenvalues --    0.63491   0.68510   0.68809   0.70319   0.74333

 Mulliken charges:
               1
     1  C    0.214977
     2  C   -0.198700
     3  C   -0.298371
     4  H    0.133923
     5  O   -0.414456
     6  H    0.169029
     7  H    0.180041
     8  H    0.213557
 Sum of Mulliken charges =  -0.00000

 Dipole moment (field-independent basis, Debye):
    X=              2.1282    Y=              1.7070    Z=              0.0238  Tot=              2.7283
 Quadrupole moment (field-independent basis, Debye-Ang):
   XX=            -23.2501   YY=            -21.8052   ZZ=            -24.3079
   XY=             -3.1652   XZ=              0.0289   YZ=              0.0302

 Normal termination of Gaussian 16 at Wed Jun  5 17:00:06 2019.
