 Gaussian 16, Revision A.03,
 Gaussian 16:  ES64L-G16RevA.03 25-Dec-2016

 ----------------
 # 6-31g(d) wb97x
 ----------------

 ------------------------
 tmpdir/M2_conf_2_192.gjf
 ------------------------
 Symbolic Z-matrix:
 Charge =  0 Multiplicity = 1

                         Standard orientation:
 ---------------------------------------------------------------------
 Center     Atomic      Atomic             Coordinates (Angstroms)
 Number     Number       Type             X           Y           Z
 ---------------------------------------------------------------------
      1          6           0        0.762193    0.503323   -0.006204
      2          6           0       -0.631895    0.591783   -0.001529
      3          7           0       -1.444318   -0.463515   -0.001389
      4          1           0        1.387218    1.377566   -0.002026
      5          8           0        1.263525   -0.619938    0.004016
      6          1           0       -1.122334    1.564589    0.026596
      7          1           0       -1.044651   -1.308678   -0.000574
 ---------------------------------------------------------------------

 SCF Done:  E(RwB97X) =  -207.864667121     A.U. after   16 cycles

 The electronic state is 1-A.
 Alpha  occ. eigenvalues --  -19.23931 -14.42841 -10.37473 -10.33721  -1.19007
 Alpha  occ. eigenvalues --   -1.03883  -0.85573  -0.71328  -0.65289  -0.59676
 Alpha  occ. eigenvalues --   -0.53597  -0.53322  -0.42211  -0.40138  -0.37979
 Alpha virt. eigenvalues --   -0.01967   0.15140   0.21006   0.24041   0.25215
 Alpha virt. eigenvalues --    0.32612   0.44369   0.47226   0.60611   0.62870
 Alpha virt. eigenvalues --    0.68925   0.70090   0.73504   0.77646   0.82058

 Mulliken charges:
               1
     1  C    0.208755
     2  C   -0.035641
     3  N   -0.470652
     4  H    0.161323
     5  O   -0.387723
     6  H    0.182385
     7  H    0.341554
 Sum of Mulliken charges =  -0.00000

 Dipole moment (field-independent basis, Debye):
    X=              0.5498    Y=              2.0411    Z=             -0.0052  Tot=              2.1138
 Quadrupole moment (field-independent basis, Debye-Ang):
   XX=            -28.9684   YY=            -19.4490   ZZ=            -22.6234
   XY=              2.1738   XZ=             -0.0277   YZ=              0.0349

 Normal termination of Gaussian 16 at Wed Jun  5 17:05:13 2019.
