 Gaussian 16, Revision A.03,
 Gaussian 16:  ES64L-G16RevA.03 25-Dec-2016

 ----------------
 # 6-31g(d) wb97x
 ----------------

 -----------------------
 tmpdir/M2_conf_0_70.gjf
 -----------------------
 Symbolic Z-matrix:
 Charge =  0 Multiplicity = 1

                         Standard orientation:
 ---------------------------------------------------------------------
 Center     Atomic      Atomic             Coordinates (Angstroms)
 Number     Number       Type             X           Y           Z
 ---------------------------------------------------------------------
      1          6           0        0.697853   -0.009403    0.001023
      2          6           0       -0.701532   -0.008518   -0.005484
      3          1           0        1.211243   -0.879486    0.010750
      4          1           0        1.253893    0.924448   -0.008356
      5          1           0       -1.229180    0.942944    0.021068
      6          1           0       -1.213880   -0.880381    0.003305
 ---------------------------------------------------------------------

 SCF Done:  E(RwB97X) =  -78.5429463244     A.U. after   12 cycles

 The electronic state is 1-A.
 Alpha  occ. eigenvalues --  -10.26794 -10.26719  -0.87586  -0.71096  -0.58347
 Alpha  occ. eigenvalues --   -0.50905  -0.47388  -0.35530
 Alpha virt. eigenvalues --    0.09802   0.22279   0.26322   0.26930   0.34974
 Alpha virt. eigenvalues --    0.40685   0.59989   0.65883   0.66696   0.74546
 Alpha virt. eigenvalues --    0.75721   0.77211   1.00069   1.00245   1.08250

 Mulliken charges:
               1
     1  C   -0.334251
     2  C   -0.333674
     3  H    0.170618
     4  H    0.162704
     5  H    0.162773
     6  H    0.171830
 Sum of Mulliken charges =  -0.00000

 Dipole moment (field-independent basis, Debye):
    X=              0.0100    Y=             -0.0410    Z=              0.0258  Tot=              0.0494
 Quadrupole moment (field-independent basis, Debye-Ang):
   XX=            -11.8509   YY=            -11.9149   ZZ=            -15.1403
   XY=              0.0249   XZ=             -0.0277   YZ=             -0.0002

 Normal termination of Gaussian 16 at Wed Jun  5 16:59:35 2019.
