 Gaussian 16, Revision A.03,
 Gaussian 16:  ES64L-G16RevA.03 25-Dec-2016

 ----------------
 # 6-31g(d) wb97x
 ----------------

 -----------------------
 tmpdir/M2_conf_1_64.gjf
 -----------------------
 Symbolic Z-matrix:
 Charge =  0 Multiplicity = 1

                         Standard orientation:
 ---------------------------------------------------------------------
 Center     Atomic      Atomic             Coordinates (Angstroms)
 Number     Number       Type             X           Y           Z
 ---------------------------------------------------------------------
      1          6           0        0.702727    0.486279   -0.005850
      2          6           0       -0.691062    0.483937   -0.000886
      3          1           0        1.256787    1.431954    0.026320
      4          6           0        1.377116   -0.734974    0.000496
      5          1           0       -1.214467    1.436510   -0.003690
      6          6           0       -1.395834   -0.713319    0.002468
 ---------------------------------------------------------------------

 SCF Done:  E(RwB97X) =  -153.247046032     A.U. after   18 cycles

 The electronic state is 1-A.
 Alpha  occ. eigenvalues --  -10.36273 -10.36100 -10.31303 -10.31108  -0.98086
 Alpha  occ. eigenvalues --   -0.84465  -0.72435  -0.60164  -0.59463  -0.46787
 Alpha  occ. eigenvalues --   -0.42526  -0.40050  -0.33249
 Alpha virt. eigenvalues --   -0.03443   0.00609   0.02631   0.16852   0.20813
 Alpha virt. eigenvalues --    0.25063   0.35334   0.45801   0.48035   0.58315
 Alpha virt. eigenvalues --    0.60892   0.63503   0.66011   0.66623   0.69182

 Mulliken charges:
               1
     1  C   -0.266541
     2  C   -0.270765
     3  H    0.234860
     4  C    0.033886
     5  H    0.235947
     6  C    0.032613
 Sum of Mulliken charges =  -0.00000

 Dipole moment (field-independent basis, Debye):
    X=              0.0880    Y=              3.4976    Z=              0.0240  Tot=              3.4988
 Quadrupole moment (field-independent basis, Debye-Ang):
   XX=            -24.1477   YY=            -23.4081   ZZ=            -25.4635
   XY=             -0.0199   XZ=              0.0801   YZ=              0.0564

 Normal termination of Gaussian 16 at Wed Jun  5 17:02:10 2019.
