 Gaussian 16, Revision A.03,
 Gaussian 16:  ES64L-G16RevA.03 25-Dec-2016

 ----------------
 # 6-31g(d) wb97x
 ----------------

 ------------------------
 tmpdir/M2_conf_1_147.gjf
 ------------------------
 Symbolic Z-matrix:
 Charge =  0 Multiplicity = 1

                         Standard orientation:
 ---------------------------------------------------------------------
 Center     Atomic      Atomic             Coordinates (Angstroms)
 Number     Number       Type             X           Y           Z
 ---------------------------------------------------------------------
      1          6           0       -0.598961    0.508319    0.002582
      2          7           0        0.747627    0.531355   -0.003736
      3          1           0       -1.036211    1.495514    0.005550
      4          8           0       -1.336512   -0.530222   -0.001354
      5          8           0        1.261085   -0.502892    0.001993
 ---------------------------------------------------------------------

 SCF Done:  E(RwB97X) =  -243.694199702     A.U. after   24 cycles

 The electronic state is 1-A.
 Alpha  occ. eigenvalues --  -19.32261 -19.27520 -14.54709 -10.41099  -1.37503
 Alpha  occ. eigenvalues --   -1.18623  -0.96646  -0.72377  -0.68042  -0.64008
 Alpha  occ. eigenvalues --   -0.62104  -0.55263  -0.50256  -0.42779  -0.35603
 Alpha virt. eigenvalues --   -0.07223   0.10655   0.22168   0.29221   0.37247
 Alpha virt. eigenvalues --    0.49400   0.59820   0.64729   0.67665   0.77370
 Alpha virt. eigenvalues --    0.78631   0.79747   0.83604   0.90263   0.94882

 Mulliken charges:
               1
     1  C    0.287875
     2  N    0.041815
     3  H    0.186640
     4  O   -0.333443
     5  O   -0.182888
 Sum of Mulliken charges =   0.00000

 Dipole moment (field-independent basis, Debye):
    X=             -0.3156    Y=              1.9023    Z=              0.0153  Tot=              1.9283
 Quadrupole moment (field-independent basis, Debye-Ang):
   XX=            -25.0002   YY=            -21.7109   ZZ=            -19.6788
   XY=             -2.6476   XZ=              0.0111   YZ=              0.0278

 Normal termination of Gaussian 16 at Wed Jun  5 17:02:37 2019.
