 Gaussian 16, Revision A.03,
 Gaussian 16:  ES64L-G16RevA.03 25-Dec-2016

 ----------------
 # 6-31g(d) wb97x
 ----------------

 ------------------------
 tmpdir/M2_conf_1_148.gjf
 ------------------------
 Symbolic Z-matrix:
 Charge =  0 Multiplicity = 1

                         Standard orientation:
 ---------------------------------------------------------------------
 Center     Atomic      Atomic             Coordinates (Angstroms)
 Number     Number       Type             X           Y           Z
 ---------------------------------------------------------------------
      1          7           0        1.129806   -0.183191   -0.000629
      2          6           0       -0.104683    0.419148   -0.001833
      3          7           0       -1.211790   -0.318947    0.001409
      4          1           0        1.415369   -1.122435   -0.002036
      5          1           0        1.865155    0.507360    0.008560
      6          1           0       -0.047426    1.476796    0.000343
      7          1           0       -2.031110    0.138361   -0.001334
 ---------------------------------------------------------------------

 SCF Done:  E(RwB97X) =  -149.936107165     A.U. after   15 cycles

 The electronic state is 1-A.
 Alpha  occ. eigenvalues --  -14.42230 -14.35070 -10.34213  -1.05777  -0.95617
 Alpha  occ. eigenvalues --   -0.74867  -0.65839  -0.58546  -0.54544  -0.46640
 Alpha  occ. eigenvalues --   -0.34345  -0.31808
 Alpha virt. eigenvalues --    0.12878   0.18334   0.21592   0.26690   0.29382
 Alpha virt. eigenvalues --    0.39801   0.46279   0.67089   0.67506   0.72431
 Alpha virt. eigenvalues --    0.74768   0.80188   0.84234   0.87605   0.90977

 Mulliken charges:
               1
     1  N   -0.725553
     2  C    0.189723
     3  N   -0.618717
     4  H    0.365033
     5  H    0.333362
     6  H    0.154275
     7  H    0.301877
 Sum of Mulliken charges =   0.00000

 Dipole moment (field-independent basis, Debye):
    X=              2.2738    Y=              1.9499    Z=              0.0048  Tot=              2.9954
 Quadrupole moment (field-independent basis, Debye-Ang):
   XX=            -13.8823   YY=            -16.6693   ZZ=            -20.3616
   XY=             -2.7529   XZ=              0.0377   YZ=              0.0174

 Normal termination of Gaussian 16 at Wed Jun  5 17:02:44 2019.
