 Gaussian 16, Revision A.03,
 Gaussian 16:  ES64L-G16RevA.03 25-Dec-2016

 ----------------
 # 6-31g(d) wb97x
 ----------------

 -----------------------
 tmpdir/M2_conf_0_64.gjf
 -----------------------
 Symbolic Z-matrix:
 Charge =  0 Multiplicity = 1

                         Standard orientation:
 ---------------------------------------------------------------------
 Center     Atomic      Atomic             Coordinates (Angstroms)
 Number     Number       Type             X           Y           Z
 ---------------------------------------------------------------------
      1          6           0        0.707069    0.486298   -0.005855
      2          6           0       -0.695420    0.483918   -0.000881
      3          1           0        1.261112    1.431983    0.026323
      4          6           0        1.381479   -0.734943    0.000501
      5          1           0       -1.218841    1.436482   -0.003692
      6          6           0       -1.400172   -0.713351    0.002462
 ---------------------------------------------------------------------

 SCF Done:  E(RwB97X) =  -153.248186421     A.U. after   18 cycles

 The electronic state is 1-A.
 Alpha  occ. eigenvalues --  -10.36290 -10.36119 -10.31383 -10.31189  -0.97911
 Alpha  occ. eigenvalues --   -0.84523  -0.72309  -0.60054  -0.59534  -0.46667
 Alpha  occ. eigenvalues --   -0.42501  -0.40094  -0.33327
 Alpha virt. eigenvalues --   -0.03398   0.00516   0.02693   0.16727   0.20857
 Alpha virt. eigenvalues --    0.24989   0.35330   0.45456   0.47972   0.58302
 Alpha virt. eigenvalues --    0.60917   0.63419   0.65833   0.66731   0.69160

 Mulliken charges:
               1
     1  C   -0.267275
     2  C   -0.271422
     3  H    0.235037
     4  C    0.034430
     5  H    0.236095
     6  C    0.033134
 Sum of Mulliken charges =  -0.00000

 Dipole moment (field-independent basis, Debye):
    X=              0.0877    Y=              3.4953    Z=              0.0241  Tot=              3.4965
 Quadrupole moment (field-independent basis, Debye-Ang):
   XX=            -24.1531   YY=            -23.4052   ZZ=            -25.4818
   XY=             -0.0190   XZ=              0.0800   YZ=              0.0566

 Normal termination of Gaussian 16 at Wed Jun  5 17:00:04 2019.
