 Gaussian 16, Revision A.03,
 Gaussian 16:  ES64L-G16RevA.03 25-Dec-2016

 ----------------
 # 6-31g(d) wb97x
 ----------------

 -----------------------
 tmpdir/M2_conf_1_13.gjf
 -----------------------
 Symbolic Z-matrix:
 Charge =  0 Multiplicity = 1

                         Standard orientation:
 ---------------------------------------------------------------------
 Center     Atomic      Atomic             Coordinates (Angstroms)
 Number     Number       Type             X           Y           Z
 ---------------------------------------------------------------------
      1          6           0        0.761828    0.001691    0.005387
      2          6           0       -0.759937    0.000572   -0.004959
      3          1           0       -1.143725   -0.725070    0.722149
      4          1           0        1.114352    0.195454    1.036705
      5          1           0        1.130461   -0.985588   -0.297421
      6          1           0        1.162253    0.784639   -0.727401
      7          1           0       -1.111778   -0.316658   -1.007132
      8          1           0       -1.162909    1.033650    0.270536
 ---------------------------------------------------------------------

 SCF Done:  E(RwB97X) =  -79.7972718040     A.U. after   12 cycles

 The electronic state is 1-A.
 Alpha  occ. eigenvalues --  -10.26103 -10.26071  -0.87863  -0.72458  -0.54427
 Alpha  occ. eigenvalues --   -0.54006  -0.46055  -0.43981  -0.43683
 Alpha virt. eigenvalues --    0.19245   0.25169   0.25257   0.25862   0.28150
 Alpha virt. eigenvalues --    0.28377   0.33632   0.61362   0.66061   0.66164
 Alpha virt. eigenvalues --    0.73886   0.74789   0.78854   0.97478   0.98862

 Mulliken charges:
               1
     1  C   -0.457493
     2  C   -0.458514
     3  H    0.156767
     4  H    0.154927
     5  H    0.156935
     6  H    0.146550
     7  H    0.154136
     8  H    0.146693
 Sum of Mulliken charges =   0.00000

 Dipole moment (field-independent basis, Debye):
    X=             -0.0023    Y=             -0.0826    Z=              0.0214  Tot=              0.0854
 Quadrupole moment (field-independent basis, Debye-Ang):
   XX=            -15.7087   YY=            -14.6864   ZZ=            -14.6613
   XY=             -0.0037   XZ=             -0.0625   YZ=              0.0154

 Normal termination of Gaussian 16 at Wed Jun  5 17:01:35 2019.
