 Gaussian 16, Revision A.03,
 Gaussian 16:  ES64L-G16RevA.03 25-Dec-2016

 ----------------
 # 6-31g(d) wb97x
 ----------------

 ------------------------
 tmpdir/M2_conf_2_122.gjf
 ------------------------
 Symbolic Z-matrix:
 Charge =  0 Multiplicity = 1

                         Standard orientation:
 ---------------------------------------------------------------------
 Center     Atomic      Atomic             Coordinates (Angstroms)
 Number     Number       Type             X           Y           Z
 ---------------------------------------------------------------------
      1          1           0       -1.226708    1.442469   -0.001934
      2          6           0       -0.686511    0.498048   -0.001427
      3          6           0        0.702561    0.516447    0.001052
      4          8           0       -1.316910   -0.550660    0.000857
      5          1           0        1.243253    1.464734    0.002960
      6          8           0        1.302805   -0.573611   -0.000704
 ---------------------------------------------------------------------

 SCF Done:  E(RwB97X) =  -227.736520218     A.U. after   14 cycles

 The electronic state is 1-A.
 Alpha  occ. eigenvalues --  -19.25629 -19.25341 -10.38310 -10.37908  -1.21425
 Alpha  occ. eigenvalues --   -1.17158  -0.88033  -0.69249  -0.67029  -0.58100
 Alpha  occ. eigenvalues --   -0.56201  -0.55105  -0.47648  -0.40985  -0.38258
 Alpha virt. eigenvalues --   -0.03861   0.14171   0.20450   0.23810   0.27042
 Alpha virt. eigenvalues --    0.41474   0.49007   0.58871   0.61370   0.67450
 Alpha virt. eigenvalues --    0.69107   0.76927   0.78116   0.85924   0.92634

 Mulliken charges:
               1
     1  H    0.148300
     2  C    0.184439
     3  C    0.171251
     4  O   -0.332253
     5  H    0.165294
     6  O   -0.337031
 Sum of Mulliken charges =  -0.00000

 Dipole moment (field-independent basis, Debye):
    X=              0.0976    Y=              3.6789    Z=             -0.0002  Tot=              3.6802
 Quadrupole moment (field-independent basis, Debye-Ang):
   XX=            -25.4846   YY=            -21.1391   ZZ=            -20.8325
   XY=              0.2016   XZ=              0.0058   YZ=              0.0009

 Normal termination of Gaussian 16 at Wed Jun  5 17:04:36 2019.
