 Gaussian 16, Revision A.03,
 Gaussian 16:  ES64L-G16RevA.03 25-Dec-2016

 ----------------
 # 6-31g(d) wb97x
 ----------------

 ------------------------
 tmpdir/M2_conf_1_121.gjf
 ------------------------
 Symbolic Z-matrix:
 Charge =  0 Multiplicity = 1

                         Standard orientation:
 ---------------------------------------------------------------------
 Center     Atomic      Atomic             Coordinates (Angstroms)
 Number     Number       Type             X           Y           Z
 ---------------------------------------------------------------------
      1          6           0       -1.420070   -0.464412   -0.000438
      2          6           0       -0.575098    0.636753   -0.001925
      3          6           0        0.806611    0.492745    0.001449
      4          1           0       -1.021733   -1.390695    0.001027
      5          1           0       -2.499386   -0.327483    0.007353
      6          1           0       -1.005097    1.636177   -0.002176
      7          1           0        1.454386    1.371362    0.004316
      8          8           0        1.275397   -0.659984   -0.000630
 ---------------------------------------------------------------------

 SCF Done:  E(RwB97X) =  -191.835787912     A.U. after   15 cycles

 The electronic state is 1-A.
 Alpha  occ. eigenvalues --  -19.20519 -10.35324 -10.29899 -10.28680  -1.15097
 Alpha  occ. eigenvalues --   -0.92191  -0.79751  -0.66633  -0.63187  -0.55420
 Alpha  occ. eigenvalues --   -0.52654  -0.50159  -0.48928  -0.36929  -0.35752
 Alpha virt. eigenvalues --    0.00846   0.17227   0.20255   0.23905   0.26781
 Alpha virt. eigenvalues --    0.30434   0.34590   0.41197   0.46516   0.62009
 Alpha virt. eigenvalues --    0.63118   0.68207   0.68793   0.70583   0.74485

 Mulliken charges:
               1
     1  C   -0.297381
     2  C   -0.191659
     3  C    0.209640
     4  H    0.212852
     5  H    0.181948
     6  H    0.163990
     7  H    0.144232
     8  O   -0.423623
 Sum of Mulliken charges =  -0.00000

 Dipole moment (field-independent basis, Debye):
    X=             -2.0658    Y=              1.8036    Z=              0.0100  Tot=              2.7424
 Quadrupole moment (field-independent basis, Debye-Ang):
   XX=            -23.0761   YY=            -21.8688   ZZ=            -24.3186
   XY=              3.3515   XZ=             -0.0116   YZ=             -0.0031

 Normal termination of Gaussian 16 at Wed Jun  5 17:02:22 2019.
