 Gaussian 16, Revision A.03,
 Gaussian 16:  ES64L-G16RevA.03 25-Dec-2016

 ----------------
 # 6-31g(d) wb97x
 ----------------

 ------------------------
 tmpdir/M2_conf_0_177.gjf
 ------------------------
 Symbolic Z-matrix:
 Charge =  0 Multiplicity = 1

                         Standard orientation:
 ---------------------------------------------------------------------
 Center     Atomic      Atomic             Coordinates (Angstroms)
 Number     Number       Type             X           Y           Z
 ---------------------------------------------------------------------
      1          6           0       -1.393115   -0.475607   -0.001428
      2          6           0       -0.577496    0.656483   -0.001082
      3          6           0        0.798723    0.485529    0.000062
      4          1           0       -2.463060   -0.374836    0.004971
      5          1           0       -0.941191   -1.380154    0.007617
      6          1           0       -1.011201    1.651135    0.000253
      7          1           0        1.458102    1.348537    0.006576
      8          8           0        1.248585   -0.655390   -0.000591
 ---------------------------------------------------------------------

 SCF Done:  E(RwB97X) =  -191.835215920     A.U. after   15 cycles

 The electronic state is 1-A.
 Alpha  occ. eigenvalues --  -19.20341 -10.34961 -10.29725 -10.28538  -1.16018
 Alpha  occ. eigenvalues --   -0.92126  -0.79569  -0.66495  -0.63472  -0.55545
 Alpha  occ. eigenvalues --   -0.52485  -0.50619  -0.49206  -0.36827  -0.35699
 Alpha virt. eigenvalues --    0.01090   0.17431   0.20764   0.24144   0.26939
 Alpha virt. eigenvalues --    0.30732   0.34956   0.41029   0.46376   0.62065
 Alpha virt. eigenvalues --    0.63339   0.68830   0.69047   0.70395   0.75136

 Mulliken charges:
               1
     1  C   -0.297712
     2  C   -0.202642
     3  C    0.215093
     4  H    0.182865
     5  H    0.215721
     6  H    0.167316
     7  H    0.138266
     8  O   -0.418909
 Sum of Mulliken charges =   0.00000

 Dipole moment (field-independent basis, Debye):
    X=             -2.0011    Y=              1.7575    Z=              0.0134  Tot=              2.6634
 Quadrupole moment (field-independent basis, Debye-Ang):
   XX=            -23.0683   YY=            -21.8745   ZZ=            -24.2687
   XY=              3.1890   XZ=             -0.0128   YZ=             -0.0080

 Normal termination of Gaussian 16 at Wed Jun  5 17:00:46 2019.
