 Gaussian 16, Revision A.03,
 Gaussian 16:  ES64L-G16RevA.03 25-Dec-2016

 ----------------
 # 6-31g(d) wb97x
 ----------------

 ------------------------
 tmpdir/M2_conf_1_185.gjf
 ------------------------
 Symbolic Z-matrix:
 Charge =  0 Multiplicity = 1

                         Standard orientation:
 ---------------------------------------------------------------------
 Center     Atomic      Atomic             Coordinates (Angstroms)
 Number     Number       Type             X           Y           Z
 ---------------------------------------------------------------------
      1          6           0        0.632980    0.491750    0.001446
      2          7           0       -0.706175    0.541985   -0.001632
      3          8           0        1.273442   -0.554126   -0.000665
      4          1           0        1.143801    1.453738    0.001442
      5          8           0       -1.273249   -0.470640    0.000828
 ---------------------------------------------------------------------

 SCF Done:  E(RwB97X) =  -243.699648222     A.U. after   24 cycles

 The electronic state is 1-A.
 Alpha  occ. eigenvalues --  -19.32005 -19.27172 -14.54064 -10.40676  -1.36692
 Alpha  occ. eigenvalues --   -1.20957  -0.96428  -0.72238  -0.68027  -0.63773
 Alpha  occ. eigenvalues --   -0.62103  -0.55484  -0.51407  -0.42939  -0.35068
 Alpha virt. eigenvalues --   -0.06707   0.11612   0.21799   0.30450   0.38172
 Alpha virt. eigenvalues --    0.49172   0.59340   0.64666   0.71329   0.77854
 Alpha virt. eigenvalues --    0.79370   0.80072   0.84615   0.90369   0.93865

 Mulliken charges:
               1
     1  C    0.283183
     2  N    0.038526
     3  O   -0.314318
     4  H    0.182888
     5  O   -0.190279
 Sum of Mulliken charges =  -0.00000

 Dipole moment (field-independent basis, Debye):
    X=              0.6172    Y=              1.8468    Z=              0.0082  Tot=              1.9472
 Quadrupole moment (field-independent basis, Debye-Ang):
   XX=            -24.5275   YY=            -21.9000   ZZ=            -19.5839
   XY=              2.8150   XZ=             -0.0065   YZ=              0.0142

 Normal termination of Gaussian 16 at Wed Jun  5 17:02:47 2019.
