 Gaussian 16, Revision A.03,
 Gaussian 16:  ES64L-G16RevA.03 25-Dec-2016

 ----------------
 # 6-31g(d) wb97x
 ----------------

 ------------------------
 tmpdir/M2_conf_2_126.gjf
 ------------------------
 Symbolic Z-matrix:
 Charge =  0 Multiplicity = 1

                         Standard orientation:
 ---------------------------------------------------------------------
 Center     Atomic      Atomic             Coordinates (Angstroms)
 Number     Number       Type             X           Y           Z
 ---------------------------------------------------------------------
      1          6           0        0.788777    0.475943    0.001601
      2          6           0       -0.589410    0.650499   -0.001047
      3          6           0       -1.416851   -0.493041    0.000390
      4          8           0        1.301862   -0.634883   -0.001035
      5          1           0        1.427954    1.356399    0.002498
      6          1           0       -1.019989    1.653594   -0.002696
      7          1           0       -1.014219   -1.420735    0.002381
      8          1           0       -2.503743   -0.310600    0.000433
 ---------------------------------------------------------------------

 SCF Done:  E(RwB97X) =  -191.835099485     A.U. after   15 cycles

 The electronic state is 1-A.
 Alpha  occ. eigenvalues --  -19.20384 -10.34864 -10.30588 -10.29040  -1.15961
 Alpha  occ. eigenvalues --   -0.92102  -0.79538  -0.66361  -0.63269  -0.55707
 Alpha  occ. eigenvalues --   -0.51810  -0.50529  -0.49773  -0.36899  -0.35594
 Alpha virt. eigenvalues --    0.00867   0.17371   0.20005   0.23619   0.26863
 Alpha virt. eigenvalues --    0.30216   0.34852   0.40563   0.46035   0.62059
 Alpha virt. eigenvalues --    0.63643   0.68640   0.68801   0.70571   0.73767

 Mulliken charges:
               1
     1  C    0.215367
     2  C   -0.200333
     3  C   -0.297566
     4  O   -0.416615
     5  H    0.129473
     6  H    0.172615
     7  H    0.217501
     8  H    0.179558
 Sum of Mulliken charges =   0.00000

 Dipole moment (field-independent basis, Debye):
    X=             -2.2177    Y=              1.6853    Z=              0.0054  Tot=              2.7855
 Quadrupole moment (field-independent basis, Debye-Ang):
   XX=            -23.3959   YY=            -21.7506   ZZ=            -24.3562
   XY=              2.9920   XZ=              0.0034   YZ=             -0.0065

 Normal termination of Gaussian 16 at Wed Jun  5 17:04:39 2019.
