 Gaussian 16, Revision A.03,
 Gaussian 16:  ES64L-G16RevA.03 25-Dec-2016

 ----------------
 # 6-31g(d) wb97x
 ----------------

 -----------------------
 tmpdir/M2_conf_1_21.gjf
 -----------------------
 Symbolic Z-matrix:
 Charge =  0 Multiplicity = 1

                         Standard orientation:
 ---------------------------------------------------------------------
 Center     Atomic      Atomic             Coordinates (Angstroms)
 Number     Number       Type             X           Y           Z
 ---------------------------------------------------------------------
      1          6           0       -1.242296   -0.210743    0.019533
      2          7           0        0.000240    0.523852   -0.152012
      3          6           0        1.235338   -0.211936    0.019925
      4          1           0       -2.107310    0.443897   -0.172074
      5          1           0       -1.256018   -1.050142   -0.685980
      6          1           0       -1.327421   -0.627735    1.043079
      7          1           0        0.019333    1.327313    0.472656
      8          1           0        1.348612   -0.627832    1.039877
      9          1           0        2.088670    0.446060   -0.176967
     10          1           0        1.274209   -1.042454   -0.693256
 ---------------------------------------------------------------------

 SCF Done:  E(RwB97X) =  -135.120177547     A.U. after   13 cycles

 The electronic state is 1-A.
 Alpha  occ. eigenvalues --  -14.38571 -10.28152 -10.27963  -1.01977  -0.82462
 Alpha  occ. eigenvalues --   -0.74067  -0.59454  -0.54681  -0.53654  -0.48965
 Alpha  occ. eigenvalues --   -0.46764  -0.46044  -0.30685
 Alpha virt. eigenvalues --    0.18167   0.23587   0.24998   0.25121   0.26856
 Alpha virt. eigenvalues --    0.28690   0.29155   0.31294   0.37087   0.61658
 Alpha virt. eigenvalues --    0.65030   0.68212   0.69764   0.70640   0.84777

 Mulliken charges:
               1
     1  C   -0.320344
     2  N   -0.553772
     3  C   -0.323285
     4  H    0.164471
     5  H    0.159936
     6  H    0.124213
     7  H    0.302370
     8  H    0.123331
     9  H    0.164140
    10  H    0.158941
 Sum of Mulliken charges =  -0.00000

 Dipole moment (field-independent basis, Debye):
    X=              0.0019    Y=             -0.1131    Z=              0.9902  Tot=              0.9967
 Quadrupole moment (field-independent basis, Debye-Ang):
   XX=            -19.3698   YY=            -19.9562   ZZ=            -21.6644
   XY=              0.0103   XZ=              0.0162   YZ=              1.9768

 Normal termination of Gaussian 16 at Wed Jun  5 17:01:34 2019.
