 Gaussian 16, Revision A.03,
 Gaussian 16:  ES64L-G16RevA.03 25-Dec-2016

 ----------------
 # 6-31g(d) wb97x
 ----------------

 ----------------------
 tmpdir/M2_conf_2_9.gjf
 ----------------------
 Symbolic Z-matrix:
 Charge =  0 Multiplicity = 1

                         Standard orientation:
 ---------------------------------------------------------------------
 Center     Atomic      Atomic             Coordinates (Angstroms)
 Number     Number       Type             X           Y           Z
 ---------------------------------------------------------------------
      1          6           0        1.226984   -0.245124   -0.034519
      2          6           0       -0.051313    0.574744    0.063716
      3          7           0       -1.188927   -0.316683   -0.115195
      4          1           0        2.092816    0.406666    0.132934
      5          1           0        1.309216   -0.660291   -1.059040
      6          1           0        1.232836   -1.073380    0.752560
      7          1           0       -0.072860    1.091479    1.042472
      8          1           0       -0.056661    1.339598   -0.721954
      9          1           0       -1.166712   -1.054464    0.589950
     10          1           0       -2.070173    0.189456   -0.105740
 ---------------------------------------------------------------------

 SCF Done:  E(RwB97X) =  -135.127231621     A.U. after   13 cycles

 The electronic state is 1-A.
 Alpha  occ. eigenvalues --  -14.37905 -10.28467 -10.25836  -1.00022  -0.84848
 Alpha  occ. eigenvalues --   -0.71462  -0.60020  -0.56605  -0.52578  -0.46203
 Alpha  occ. eigenvalues --   -0.45838  -0.44443  -0.32310
 Alpha virt. eigenvalues --    0.18126   0.22322   0.23318   0.26188   0.27059
 Alpha virt. eigenvalues --    0.29013   0.29940   0.33663   0.35680   0.63488
 Alpha virt. eigenvalues --    0.66883   0.68158   0.69176   0.78609   0.79095

 Mulliken charges:
               1
     1  C   -0.461231
     2  C   -0.142895
     3  N   -0.741521
     4  H    0.153087
     5  H    0.170223
     6  H    0.135914
     7  H    0.121720
     8  H    0.152816
     9  H    0.302458
    10  H    0.309429
 Sum of Mulliken charges =  -0.00000

 Dipole moment (field-independent basis, Debye):
    X=             -0.2612    Y=              0.5452    Z=              1.1088  Tot=              1.2629
 Quadrupole moment (field-independent basis, Debye-Ang):
   XX=            -19.0661   YY=            -20.3023   ZZ=            -21.1718
   XY=             -0.5632   XZ=             -1.5516   YZ=             -1.8230

 Normal termination of Gaussian 16 at Wed Jun  5 17:03:56 2019.
