 Gaussian 16, Revision A.03,
 Gaussian 16:  ES64L-G16RevA.03 25-Dec-2016

 ----------------
 # 6-31g(d) wb97x
 ----------------

 -----------------------
 tmpdir/M2_conf_0_63.gjf
 -----------------------
 Symbolic Z-matrix:
 Charge =  0 Multiplicity = 1

                         Standard orientation:
 ---------------------------------------------------------------------
 Center     Atomic      Atomic             Coordinates (Angstroms)
 Number     Number       Type             X           Y           Z
 ---------------------------------------------------------------------
      1          1           0        1.523077   -0.187851    1.031263
      2          6           0        1.163895   -0.143228   -0.005896
      3          6           0       -0.233457    0.441348   -0.005076
      4          1           0        1.908506    0.483158   -0.601584
      5          1           0        1.123114   -1.189882   -0.367161
      6          1           0       -0.369784    1.441692    0.032789
      7          8           0       -1.220942   -0.291979   -0.003684
 ---------------------------------------------------------------------

 SCF Done:  E(RwB97X) =  -153.775847775     A.U. after   15 cycles

 The electronic state is 1-A.
 Alpha  occ. eigenvalues --  -19.21327 -10.35795 -10.28501  -1.15958  -0.87515
 Alpha  occ. eigenvalues --   -0.72123  -0.58812  -0.54824  -0.53630  -0.50058
 Alpha  occ. eigenvalues --   -0.45762  -0.35626
 Alpha virt. eigenvalues --    0.06994   0.20331   0.23399   0.25408   0.26214
 Alpha virt. eigenvalues --    0.34927   0.37678   0.63297   0.64048   0.70125
 Alpha virt. eigenvalues --    0.70917   0.76787   0.82541   0.85494   0.95024

 Mulliken charges:
               1
     1  H    0.195299
     2  C   -0.562345
     3  C    0.240536
     4  H    0.167269
     5  H    0.201412
     6  H    0.149447
     7  O   -0.391618
 Sum of Mulliken charges =  -0.00000

 Dipole moment (field-independent basis, Debye):
    X=              2.3922    Y=              1.3063    Z=              0.1240  Tot=              2.7285
 Quadrupole moment (field-independent basis, Debye-Ang):
   XX=            -20.7062   YY=            -17.3099   ZZ=            -17.6176
   XY=             -1.1393   XZ=              0.1233   YZ=             -0.0461

 Normal termination of Gaussian 16 at Wed Jun  5 16:59:55 2019.
