 Gaussian 16, Revision A.03,
 Gaussian 16:  ES64L-G16RevA.03 25-Dec-2016

 ----------------
 # 6-31g(d) wb97x
 ----------------

 -----------------------
 tmpdir/M2_conf_0_78.gjf
 -----------------------
 Symbolic Z-matrix:
 Charge =  0 Multiplicity = 1

                         Standard orientation:
 ---------------------------------------------------------------------
 Center     Atomic      Atomic             Coordinates (Angstroms)
 Number     Number       Type             X           Y           Z
 ---------------------------------------------------------------------
      1          1           0        1.249847    1.440649    0.036295
      2          6           0        0.695358    0.505078   -0.004279
      3          6           0       -0.701632    0.508162   -0.007640
      4          8           0        1.313104   -0.552635   -0.000661
      5          8           0       -1.302030   -0.564365    0.004816
      6          1           0       -1.300791    1.415917    0.001974
 ---------------------------------------------------------------------

 SCF Done:  E(RwB97X) =  -227.738160811     A.U. after   16 cycles

 The electronic state is 1-A.
 Alpha  occ. eigenvalues --  -19.25362 -19.25271 -10.38088 -10.38006  -1.21666
 Alpha  occ. eigenvalues --   -1.17505  -0.87457  -0.69361  -0.67229  -0.58062
 Alpha  occ. eigenvalues --   -0.56287  -0.55110  -0.47858  -0.40897  -0.38118
 Alpha virt. eigenvalues --   -0.03508   0.14236   0.20799   0.23541   0.27288
 Alpha virt. eigenvalues --    0.41993   0.48456   0.58937   0.60948   0.67312
 Alpha virt. eigenvalues --    0.69908   0.77890   0.78413   0.86306   0.92980

 Mulliken charges:
               1
     1  H    0.153540
     2  C    0.179370
     3  C    0.168718
     4  O   -0.331714
     5  O   -0.331419
     6  H    0.161505
 Sum of Mulliken charges =  -0.00000

 Dipole moment (field-independent basis, Debye):
    X=             -0.0583    Y=              3.6607    Z=             -0.0088  Tot=              3.6612
 Quadrupole moment (field-independent basis, Debye-Ang):
   XX=            -25.2937   YY=            -21.2386   ZZ=            -20.8099
   XY=             -0.1087   XZ=              0.0273   YZ=              0.0127

 Normal termination of Gaussian 16 at Wed Jun  5 17:00:02 2019.
