 Gaussian 16, Revision A.03,
 Gaussian 16:  ES64L-G16RevA.03 25-Dec-2016

 ----------------
 # 6-31g(d) wb97x
 ----------------

 ------------------------
 tmpdir/M2_conf_0_144.gjf
 ------------------------
 Symbolic Z-matrix:
 Charge =  0 Multiplicity = 1

                         Standard orientation:
 ---------------------------------------------------------------------
 Center     Atomic      Atomic             Coordinates (Angstroms)
 Number     Number       Type             X           Y           Z
 ---------------------------------------------------------------------
      1          6           0       -0.999124   -0.425526    0.018951
      2          7           0       -0.034756    0.592225    0.011002
      3          6           0        1.333164    0.468013   -0.000204
      4          1           0       -0.762411   -1.408160    0.052575
      5          8           0       -2.188126   -0.060379   -0.019372
      6          1           0       -0.384140    1.538582    0.007664
      7          8           0        1.882324   -0.681283   -0.011345
      8          1           0        1.832022    1.402378   -0.003994
 ---------------------------------------------------------------------

 SCF Done:  E(RwB97X) =  -283.130257600     A.U. after   16 cycles

 The electronic state is 1-A.
 Alpha  occ. eigenvalues --  -19.22242 -19.22004 -14.48547 -10.41076 -10.40436
 Alpha  occ. eigenvalues --   -1.19259  -1.15934  -1.06904  -0.83174  -0.75706
 Alpha  occ. eigenvalues --   -0.67258  -0.64145  -0.56824  -0.54929  -0.53937
 Alpha  occ. eigenvalues --   -0.49078  -0.40602  -0.39048  -0.37427
 Alpha virt. eigenvalues --    0.03182   0.12074   0.16446   0.23030   0.24830
 Alpha virt. eigenvalues --    0.30692   0.33856   0.37856   0.43877   0.58522
 Alpha virt. eigenvalues --    0.58668   0.65904   0.67646   0.72537   0.73733

 Mulliken charges:
               1
     1  C    0.373111
     2  N   -0.582867
     3  C    0.342665
     4  H    0.212571
     5  O   -0.437934
     6  H    0.370000
     7  O   -0.454549
     8  H    0.177003
 Sum of Mulliken charges =  -0.00000

 Dipole moment (field-independent basis, Debye):
    X=              0.7869    Y=              2.5353    Z=              0.1072  Tot=              2.6567
 Quadrupole moment (field-independent basis, Debye-Ang):
   XX=            -39.3080   YY=            -23.2640   ZZ=            -27.7616
   XY=              4.9960   XZ=             -0.1094   YZ=             -0.0678

 Normal termination of Gaussian 16 at Wed Jun  5 17:00:42 2019.
