 Gaussian 16, Revision A.03,
 Gaussian 16:  ES64L-G16RevA.03 25-Dec-2016

 ----------------
 # 6-31g(d) wb97x
 ----------------

 -----------------------
 tmpdir/M2_conf_2_68.gjf
 -----------------------
 Symbolic Z-matrix:
 Charge =  0 Multiplicity = 1

                         Standard orientation:
 ---------------------------------------------------------------------
 Center     Atomic      Atomic             Coordinates (Angstroms)
 Number     Number       Type             X           Y           Z
 ---------------------------------------------------------------------
      1          6           0       -0.794607    0.480096   -0.000790
      2          6           0        0.590435    0.652185   -0.005325
      3          6           0        1.401836   -0.482676    0.000028
      4          1           0       -1.429986    1.361938   -0.002777
      5          8           0       -1.282985   -0.643235    0.000888
      6          1           0        1.025355    1.658190    0.027991
      7          1           0        2.484198   -0.368522   -0.008674
      8          1           0        0.998326   -1.403352    0.012873
 ---------------------------------------------------------------------

 SCF Done:  E(RwB97X) =  -191.837067921     A.U. after   15 cycles

 The electronic state is 1-A.
 Alpha  occ. eigenvalues --  -19.20474 -10.35031 -10.29981 -10.28891  -1.16008
 Alpha  occ. eigenvalues --   -0.92155  -0.79539  -0.66567  -0.63183  -0.55694
 Alpha  occ. eigenvalues --   -0.52114  -0.50576  -0.49524  -0.37017  -0.35701
 Alpha virt. eigenvalues --    0.01111   0.17313   0.20298   0.23986   0.26802
 Alpha virt. eigenvalues --    0.30434   0.35142   0.40960   0.45932   0.62054
 Alpha virt. eigenvalues --    0.63594   0.68818   0.68869   0.70336   0.74402

 Mulliken charges:
               1
     1  C    0.215921
     2  C   -0.200834
     3  C   -0.297759
     4  H    0.133440
     5  O   -0.415904
     6  H    0.170676
     7  H    0.179327
     8  H    0.215133
 Sum of Mulliken charges =  -0.00000

 Dipole moment (field-independent basis, Debye):
    X=              2.1122    Y=              1.7080    Z=              0.0242  Tot=              2.7165
 Quadrupole moment (field-independent basis, Debye-Ang):
   XX=            -23.3026   YY=            -21.7529   ZZ=            -24.3040
   XY=             -3.1473   XZ=              0.0289   YZ=              0.0310

 Normal termination of Gaussian 16 at Wed Jun  5 17:04:21 2019.
