 Gaussian 16, Revision A.03,
 Gaussian 16:  ES64L-G16RevA.03 25-Dec-2016

 ----------------
 # 6-31g(d) wb97x
 ----------------

 ------------------------
 tmpdir/M2_conf_0_105.gjf
 ------------------------
 Symbolic Z-matrix:
 Charge =  0 Multiplicity = 1

                         Standard orientation:
 ---------------------------------------------------------------------
 Center     Atomic      Atomic             Coordinates (Angstroms)
 Number     Number       Type             X           Y           Z
 ---------------------------------------------------------------------
      1          7           0       -1.204666   -0.185986   -0.021660
      2          6           0        0.065437    0.434225    0.030343
      3          6           0        1.307211   -0.198842   -0.015917
      4          1           0       -1.438102   -1.079771    0.236266
      5          1           0       -1.977234    0.443746   -0.178716
      6          1           0        0.086804    1.441245    0.076513
      7          1           0        1.373558   -1.272664   -0.075190
      8          1           0        2.151743    0.357045    0.006190
 ---------------------------------------------------------------------

 SCF Done:  E(RwB97X) =  -133.879120119     A.U. after   14 cycles

 The electronic state is 1-A.
 Alpha  occ. eigenvalues --  -14.40584 -10.29760 -10.22844  -1.02019  -0.84560
 Alpha  occ. eigenvalues --   -0.70893  -0.62527  -0.58761  -0.50352  -0.47307
 Alpha  occ. eigenvalues --   -0.42439  -0.28268
 Alpha virt. eigenvalues --    0.13647   0.19089   0.24152   0.25919   0.29708
 Alpha virt. eigenvalues --    0.31806   0.42393   0.44349   0.62496   0.66543
 Alpha virt. eigenvalues --    0.68362   0.75483   0.76665   0.78823   0.83443

 Mulliken charges:
               1
     1  N   -0.782949
     2  C    0.063455
     3  C   -0.418973
     4  H    0.348448
     5  H    0.335881
     6  H    0.162372
     7  H    0.138235
     8  H    0.153530
 Sum of Mulliken charges =   0.00000

 Dipole moment (field-independent basis, Debye):
    X=             -1.6958    Y=              0.2485    Z=              0.2744  Tot=              1.7358
 Quadrupole moment (field-independent basis, Debye-Ang):
   XX=            -15.6823   YY=            -15.8832   ZZ=            -21.9998
   XY=              0.3712   XZ=             -0.1470   YZ=             -0.6382

 Normal termination of Gaussian 16 at Wed Jun  5 16:59:49 2019.
