 Gaussian 16, Revision A.03,
 Gaussian 16:  ES64L-G16RevA.03 25-Dec-2016

 ----------------
 # 6-31g(d) wb97x
 ----------------

 ------------------------
 tmpdir/M2_conf_2_184.gjf
 ------------------------
 Symbolic Z-matrix:
 Charge =  0 Multiplicity = 1

                         Standard orientation:
 ---------------------------------------------------------------------
 Center     Atomic      Atomic             Coordinates (Angstroms)
 Number     Number       Type             X           Y           Z
 ---------------------------------------------------------------------
      1          6           0        0.542459   -0.006751   -0.000611
      2          1           0        1.098103    0.922028    0.001213
      3          8           0       -0.683920    0.000314    0.000145
      4          1           0        1.118505   -0.884032    0.001294
 ---------------------------------------------------------------------

 SCF Done:  E(RwB97X) =  -114.463298843     A.U. after   14 cycles

 The electronic state is 1-A.
 Alpha  occ. eigenvalues --  -19.23356 -10.36462  -1.17209  -0.77131  -0.61332
 Alpha  occ. eigenvalues --   -0.55368  -0.49676  -0.37001
 Alpha virt. eigenvalues --    0.05470   0.21459   0.29221   0.31509   0.62028
 Alpha virt. eigenvalues --    0.71817   0.73055   0.79070   0.96067   0.96335
 Alpha virt. eigenvalues --    1.03606   1.07740   1.17475   1.48328   1.60891

 Mulliken charges:
               1
     1  C    0.057411
     2  H    0.138435
     3  O   -0.345423
     4  H    0.149578
 Sum of Mulliken charges =  -0.00000

 Dipole moment (field-independent basis, Debye):
    X=              2.4406    Y=             -0.0485    Z=              0.0002  Tot=              2.4411
 Quadrupole moment (field-independent basis, Debye-Ang):
   XX=            -11.7193   YY=            -11.3911   ZZ=            -11.3774
   XY=             -0.0730   XZ=              0.0011   YZ=              0.0001

 Normal termination of Gaussian 16 at Wed Jun  5 17:05:12 2019.
