 Gaussian 16, Revision A.03,
 Gaussian 16:  ES64L-G16RevA.03 25-Dec-2016

 ----------------
 # 6-31g(d) wb97x
 ----------------

 -----------------------
 tmpdir/M2_conf_2_39.gjf
 -----------------------
 Symbolic Z-matrix:
 Charge =  0 Multiplicity = 1

                         Standard orientation:
 ---------------------------------------------------------------------
 Center     Atomic      Atomic             Coordinates (Angstroms)
 Number     Number       Type             X           Y           Z
 ---------------------------------------------------------------------
      1          1           0       -0.153099   -0.434576    0.991987
      2          6           0       -0.000228    0.002652   -0.001881
      3          1           0       -0.619413   -0.571956   -0.719963
      4          1           0        1.110221   -0.060572   -0.263923
      5          1           0       -0.336341    1.051191    0.003187
 ---------------------------------------------------------------------

 SCF Done:  E(RwB97X) =  -40.4976704257     A.U. after   11 cycles

 The electronic state is 1-A.
 Alpha  occ. eigenvalues --  -10.25714  -0.81231  -0.49490  -0.49206  -0.48765
 Alpha virt. eigenvalues --    0.21083   0.26421   0.27059   0.27411   0.63997
 Alpha virt. eigenvalues --    0.64276   0.65611   0.98783   1.00662   1.01388
 Alpha virt. eigenvalues --    1.05007   1.20203   1.76019   1.76276   2.29803

 Mulliken charges:
               1
     1  H    0.167696
     2  C   -0.658708
     3  H    0.165371
     4  H    0.157837
     5  H    0.167803
 Sum of Mulliken charges =   0.00000

 Dipole moment (field-independent basis, Debye):
    X=             -0.0377    Y=             -0.0056    Z=              0.0278  Tot=              0.0472
 Quadrupole moment (field-independent basis, Debye-Ang):
   XX=             -8.2115   YY=             -8.3019   ZZ=             -8.3903
   XY=             -0.0014   XZ=              0.0148   YZ=             -0.0096

 Normal termination of Gaussian 16 at Wed Jun  5 17:03:52 2019.
