 Gaussian 16, Revision A.03,
 Gaussian 16:  ES64L-G16RevA.03 25-Dec-2016

 ----------------
 # 6-31g(d) wb97x
 ----------------

 -----------------------
 tmpdir/M2_conf_2_52.gjf
 -----------------------
 Symbolic Z-matrix:
 Charge =  0 Multiplicity = 1

                         Standard orientation:
 ---------------------------------------------------------------------
 Center     Atomic      Atomic             Coordinates (Angstroms)
 Number     Number       Type             X           Y           Z
 ---------------------------------------------------------------------
      1          6           0        1.226776   -0.221286    0.020361
      2          7           0        0.000710    0.544465   -0.156258
      3          6           0       -1.225193   -0.224739    0.018888
      4          1           0        1.314283   -0.611991    1.052414
      5          1           0        2.083654    0.437307   -0.164905
      6          1           0        1.253355   -1.066374   -0.685784
      7          1           0       -0.026769    1.358452    0.451630
      8          1           0       -1.250094   -1.070501   -0.685724
      9          1           0       -2.084330    0.430383   -0.162284
     10          1           0       -1.304565   -0.612383    1.052968
 ---------------------------------------------------------------------

 SCF Done:  E(RwB97X) =  -135.120130110     A.U. after   13 cycles

 The electronic state is 1-A.
 Alpha  occ. eigenvalues --  -14.38554 -10.28087 -10.28023  -1.01771  -0.82186
 Alpha  occ. eigenvalues --   -0.74151  -0.59395  -0.54651  -0.53391  -0.48954
 Alpha  occ. eigenvalues --   -0.46690  -0.46142  -0.30651
 Alpha virt. eigenvalues --    0.18112   0.23202   0.25089   0.25419   0.26648
 Alpha virt. eigenvalues --    0.28899   0.29250   0.31321   0.36642   0.62444
 Alpha virt. eigenvalues --    0.64616   0.68142   0.69919   0.70566   0.84625

 Mulliken charges:
               1
     1  C   -0.319924
     2  N   -0.557478
     3  C   -0.322085
     4  H    0.124451
     5  H    0.163378
     6  H    0.160208
     7  H    0.304962
     8  H    0.159468
     9  H    0.162904
    10  H    0.124116
 Sum of Mulliken charges =  -0.00000

 Dipole moment (field-independent basis, Debye):
    X=             -0.0134    Y=             -0.1094    Z=              1.0050  Tot=              1.0110
 Quadrupole moment (field-independent basis, Debye-Ang):
   XX=            -19.5055   YY=            -19.8225   ZZ=            -21.6972
   XY=             -0.0676   XZ=             -0.0217   YZ=              2.0661

 Normal termination of Gaussian 16 at Wed Jun  5 17:03:44 2019.
