 Gaussian 16, Revision A.03,
 Gaussian 16:  ES64L-G16RevA.03 25-Dec-2016

 ----------------
 # 6-31g(d) wb97x
 ----------------

 -----------------------
 tmpdir/M2_conf_2_99.gjf
 -----------------------
 Symbolic Z-matrix:
 Charge =  0 Multiplicity = 1

                         Standard orientation:
 ---------------------------------------------------------------------
 Center     Atomic      Atomic             Coordinates (Angstroms)
 Number     Number       Type             X           Y           Z
 ---------------------------------------------------------------------
      1          7           0       -1.109857   -0.164969   -0.023109
      2          6           0        0.184367    0.409913    0.036204
      3          1           0       -1.374322   -1.054372    0.219556
      4          1           0       -1.859908    0.494522   -0.166569
      5          8           0        1.206921   -0.269923   -0.026087
      6          1           0        0.241658    1.414543    0.100248
 ---------------------------------------------------------------------

 SCF Done:  E(RwB97X) =  -169.825121664     A.U. after   15 cycles

 The electronic state is 1-A.
 Alpha  occ. eigenvalues --  -19.18747 -14.43033 -10.37472  -1.15135  -1.02530
 Alpha  occ. eigenvalues --   -0.76148  -0.64878  -0.61933  -0.52152  -0.49855
 Alpha  occ. eigenvalues --   -0.36823  -0.35913
 Alpha virt. eigenvalues --    0.10826   0.18391   0.22665   0.28614   0.36061
 Alpha virt. eigenvalues --    0.41458   0.64482   0.67005   0.74363   0.78393
 Alpha virt. eigenvalues --    0.81024   0.83564   0.97356   0.99898   1.02584

 Mulliken charges:
               1
     1  N   -0.763582
     2  C    0.346090
     3  H    0.365050
     4  H    0.338083
     5  O   -0.439572
     6  H    0.153931
 Sum of Mulliken charges =  -0.00000

 Dipole moment (field-independent basis, Debye):
    X=             -3.5723    Y=              1.2860    Z=              0.3794  Tot=              3.8156
 Quadrupole moment (field-independent basis, Debye-Ang):
   XX=            -17.3031   YY=            -14.7752   ZZ=            -18.2326
   XY=              1.3862   XZ=             -0.0593   YZ=             -0.7193

 Normal termination of Gaussian 16 at Wed Jun  5 17:04:29 2019.
