 Gaussian 16, Revision A.03,
 Gaussian 16:  ES64L-G16RevA.03 25-Dec-2016

 ----------------
 # 6-31g(d) wb97x
 ----------------

 ------------------------
 tmpdir/M2_conf_0_186.gjf
 ------------------------
 Symbolic Z-matrix:
 Charge =  0 Multiplicity = 1

                         Standard orientation:
 ---------------------------------------------------------------------
 Center     Atomic      Atomic             Coordinates (Angstroms)
 Number     Number       Type             X           Y           Z
 ---------------------------------------------------------------------
      1          6           0       -0.703194   -0.011652   -0.000684
      2          6           0        0.687860   -0.000258   -0.000497
      3          1           0        1.264089    0.924029   -0.003143
      4          1           0       -1.176518   -0.896968   -0.002757
      5          1           0       -1.271803    0.913688    0.006546
      6          1           0        1.276237   -0.869291    0.006440
 ---------------------------------------------------------------------

 SCF Done:  E(RwB97X) =  -78.5461776026     A.U. after   13 cycles

 The electronic state is 1-A.
 Alpha  occ. eigenvalues --  -10.27115 -10.26701  -0.87595  -0.71028  -0.57869
 Alpha  occ. eigenvalues --   -0.51507  -0.46804  -0.35704
 Alpha virt. eigenvalues --    0.09938   0.22509   0.25466   0.26741   0.34913
 Alpha virt. eigenvalues --    0.41218   0.60104   0.65489   0.66551   0.74533
 Alpha virt. eigenvalues --    0.75972   0.77628   0.99135   1.00472   1.07330

 Mulliken charges:
               1
     1  C   -0.329644
     2  C   -0.336281
     3  H    0.160169
     4  H    0.171499
     5  H    0.166216
     6  H    0.168042
 Sum of Mulliken charges =  -0.00000

 Dipole moment (field-independent basis, Debye):
    X=              0.0154    Y=             -0.0373    Z=              0.0067  Tot=              0.0409
 Quadrupole moment (field-independent basis, Debye-Ang):
   XX=            -11.7021   YY=            -12.0502   ZZ=            -15.1516
   XY=             -0.0704   XZ=             -0.0007   YZ=              0.0005

 Normal termination of Gaussian 16 at Wed Jun  5 17:00:45 2019.
