 Gaussian 16, Revision A.03,
 Gaussian 16:  ES64L-G16RevA.03 25-Dec-2016

 ----------------
 # 6-31g(d) wb97x
 ----------------

 -----------------------
 tmpdir/M2_conf_2_89.gjf
 -----------------------
 Symbolic Z-matrix:
 Charge =  0 Multiplicity = 1

                         Standard orientation:
 ---------------------------------------------------------------------
 Center     Atomic      Atomic             Coordinates (Angstroms)
 Number     Number       Type             X           Y           Z
 ---------------------------------------------------------------------
      1          6           0       -0.759947    0.483910   -0.089360
      2          6           0        0.740281    0.473494    0.083591
      3          1           0       -1.286806    1.306826   -0.350043
      4          6           0       -1.433955   -0.722400    0.096694
      5          6           0        1.472912   -0.689484   -0.092924
      6          1           0        1.171056    1.420050    0.362040
 ---------------------------------------------------------------------

 SCF Done:  E(RwB97X) =  -153.250651146     A.U. after   18 cycles

 The electronic state is 1-A.
 Alpha  occ. eigenvalues --  -10.36556 -10.36530 -10.32088 -10.31494  -0.96325
 Alpha  occ. eigenvalues --   -0.85585  -0.71247  -0.62418  -0.58491  -0.44848
 Alpha  occ. eigenvalues --   -0.42203  -0.40609  -0.34896
 Alpha virt. eigenvalues --   -0.02099  -0.00983   0.04008   0.13904   0.22724
 Alpha virt. eigenvalues --    0.25066   0.36422   0.39955   0.46747   0.57854
 Alpha virt. eigenvalues --    0.61329   0.62403   0.63784   0.67157   0.69539

 Mulliken charges:
               1
     1  C   -0.271166
     2  C   -0.280995
     3  H    0.231902
     4  C    0.042193
     5  C    0.041858
     6  H    0.236207
 Sum of Mulliken charges =  -0.00000

 Dipole moment (field-independent basis, Debye):
    X=             -0.1551    Y=              3.3222    Z=             -0.0024  Tot=              3.3258
 Quadrupole moment (field-independent basis, Debye-Ang):
   XX=            -24.5611   YY=            -23.6622   ZZ=            -25.1180
   XY=             -0.0010   XZ=              1.9790   YZ=              0.1097

 Normal termination of Gaussian 16 at Wed Jun  5 17:04:20 2019.
