 Gaussian 16, Revision A.03,
 Gaussian 16:  ES64L-G16RevA.03 25-Dec-2016

 ----------------
 # 6-31g(d) wb97x
 ----------------

 -----------------------
 tmpdir/M2_conf_1_99.gjf
 -----------------------
 Symbolic Z-matrix:
 Charge =  0 Multiplicity = 1

                         Standard orientation:
 ---------------------------------------------------------------------
 Center     Atomic      Atomic             Coordinates (Angstroms)
 Number     Number       Type             X           Y           Z
 ---------------------------------------------------------------------
      1          7           0       -1.114315   -0.164477   -0.023097
      2          6           0        0.187694    0.410624    0.036220
      3          1           0       -1.380594   -1.053287    0.219756
      4          1           0       -1.863012    0.496552   -0.166549
      5          8           0        1.208820   -0.271352   -0.026117
      6          1           0        0.247089    1.415142    0.100090
 ---------------------------------------------------------------------

 SCF Done:  E(RwB97X) =  -169.824513423     A.U. after   15 cycles

 The electronic state is 1-A.
 Alpha  occ. eigenvalues --  -19.18868 -14.42990 -10.37581  -1.15163  -1.02375
 Alpha  occ. eigenvalues --   -0.76102  -0.64738  -0.61905  -0.52213  -0.49837
 Alpha  occ. eigenvalues --   -0.36807  -0.35988
 Alpha virt. eigenvalues --    0.10719   0.18414   0.22666   0.28569   0.35994
 Alpha virt. eigenvalues --    0.41042   0.64489   0.67129   0.74248   0.78387
 Alpha virt. eigenvalues --    0.81047   0.83600   0.97321   0.99945   1.02582

 Mulliken charges:
               1
     1  N   -0.766806
     2  C    0.346860
     3  H    0.364805
     4  H    0.337818
     5  O   -0.437599
     6  H    0.154922
 Sum of Mulliken charges =   0.00000

 Dipole moment (field-independent basis, Debye):
    X=             -3.5378    Y=              1.2998    Z=              0.3808  Tot=              3.7882
 Quadrupole moment (field-independent basis, Debye-Ang):
   XX=            -17.3015   YY=            -14.7712   ZZ=            -18.2457
   XY=              1.3933   XZ=             -0.0616   YZ=             -0.7205

 Normal termination of Gaussian 16 at Wed Jun  5 17:02:22 2019.
