 Gaussian 16, Revision A.03,
 Gaussian 16:  ES64L-G16RevA.03 25-Dec-2016

 ----------------
 # 6-31g(d) wb97x
 ----------------

 ------------------------
 tmpdir/M2_conf_0_174.gjf
 ------------------------
 Symbolic Z-matrix:
 Charge =  0 Multiplicity = 1

                         Standard orientation:
 ---------------------------------------------------------------------
 Center     Atomic      Atomic             Coordinates (Angstroms)
 Number     Number       Type             X           Y           Z
 ---------------------------------------------------------------------
      1          6           0        0.550214   -0.013327   -0.000256
      2          1           0        1.118626    0.905814    0.000527
      3          8           0       -0.679669    0.009503    0.000057
      4          1           0        1.017437   -0.901874    0.000557
 ---------------------------------------------------------------------

 SCF Done:  E(RwB97X) =  -114.457473993     A.U. after   14 cycles

 The electronic state is 1-A.
 Alpha  occ. eigenvalues --  -19.22990 -10.35847  -1.16862  -0.77414  -0.62289
 Alpha  occ. eigenvalues --   -0.54899  -0.49378  -0.36885
 Alpha virt. eigenvalues --    0.05495   0.21972   0.29700   0.31688   0.62210
 Alpha virt. eigenvalues --    0.70600   0.74282   0.78188   0.96425   0.98360
 Alpha virt. eigenvalues --    1.06441   1.07919   1.17826   1.48264   1.60882

 Mulliken charges:
               1
     1  C    0.054854
     2  H    0.141256
     3  O   -0.352883
     4  H    0.156773
 Sum of Mulliken charges =   0.00000

 Dipole moment (field-independent basis, Debye):
    X=              2.4670    Y=             -0.1013    Z=              0.0001  Tot=              2.4691
 Quadrupole moment (field-independent basis, Debye-Ang):
   XX=            -11.7570   YY=            -11.2331   ZZ=            -11.3381
   XY=             -0.0121   XZ=              0.0004   YZ=              0.0000

 Normal termination of Gaussian 16 at Wed Jun  5 17:01:12 2019.
