 Gaussian 16, Revision A.03,
 Gaussian 16:  ES64L-G16RevA.03 25-Dec-2016

 ----------------
 # 6-31g(d) wb97x
 ----------------

 ------------------------
 tmpdir/M2_conf_1_109.gjf
 ------------------------
 Symbolic Z-matrix:
 Charge =  0 Multiplicity = 1

                         Standard orientation:
 ---------------------------------------------------------------------
 Center     Atomic      Atomic             Coordinates (Angstroms)
 Number     Number       Type             X           Y           Z
 ---------------------------------------------------------------------
      1          6           0       -0.713181    0.486124    0.001309
      2          6           0        0.690207    0.491125   -0.001581
      3          6           0       -1.396860   -0.729393   -0.001493
      4          1           0       -1.252640    1.418840    0.005994
      5          6           0        1.414108   -0.720606    0.001614
      6          1           0        1.286993    1.417661   -0.005092
 ---------------------------------------------------------------------

 SCF Done:  E(RwB97X) =  -153.245595582     A.U. after   17 cycles

 The electronic state is 1-A.
 Alpha  occ. eigenvalues --  -10.36445 -10.36347 -10.31592 -10.31230  -0.97588
 Alpha  occ. eigenvalues --   -0.84433  -0.71936  -0.60334  -0.59495  -0.46454
 Alpha  occ. eigenvalues --   -0.42487  -0.40081  -0.33192
 Alpha virt. eigenvalues --   -0.03362   0.00440   0.02460   0.16486   0.20919
 Alpha virt. eigenvalues --    0.24783   0.34654   0.45458   0.47656   0.58490
 Alpha virt. eigenvalues --    0.60991   0.62977   0.66128   0.66584   0.69201

 Mulliken charges:
               1
     1  C   -0.264522
     2  C   -0.278701
     3  C    0.035340
     4  H    0.235524
     5  C    0.037797
     6  H    0.234563
 Sum of Mulliken charges =  -0.00000

 Dipole moment (field-independent basis, Debye):
    X=             -0.0423    Y=              3.4131    Z=              0.0012  Tot=              3.4134
 Quadrupole moment (field-independent basis, Debye-Ang):
   XX=            -24.1814   YY=            -23.4515   ZZ=            -25.5426
   XY=              0.0657   XZ=             -0.0361   YZ=              0.0019

 Normal termination of Gaussian 16 at Wed Jun  5 17:02:31 2019.
