 Gaussian 16, Revision A.03,
 Gaussian 16:  ES64L-G16RevA.03 25-Dec-2016

 ----------------
 # 6-31g(d) wb97x
 ----------------

 -----------------------
 tmpdir/M2_conf_0_83.gjf
 -----------------------
 Symbolic Z-matrix:
 Charge =  0 Multiplicity = 1

                         Standard orientation:
 ---------------------------------------------------------------------
 Center     Atomic      Atomic             Coordinates (Angstroms)
 Number     Number       Type             X           Y           Z
 ---------------------------------------------------------------------
      1          1           0        1.238628    1.446184    0.015744
      2          6           0        0.694081    0.503879    0.003771
      3          6           0       -0.694693    0.503033   -0.005084
      4          8           0        1.317200   -0.556578   -0.003138
      5          1           0       -1.256818    1.432557   -0.011638
      6          8           0       -1.314467   -0.558449    0.003610
 ---------------------------------------------------------------------

 SCF Done:  E(RwB97X) =  -227.737451319     A.U. after   14 cycles

 The electronic state is 1-A.
 Alpha  occ. eigenvalues --  -19.25475 -19.25403 -10.38086 -10.37986  -1.21574
 Alpha  occ. eigenvalues --   -1.17455  -0.87942  -0.69287  -0.67210  -0.58144
 Alpha  occ. eigenvalues --   -0.56320  -0.55141  -0.47813  -0.41024  -0.38201
 Alpha virt. eigenvalues --   -0.03749   0.14321   0.20621   0.23822   0.27207
 Alpha virt. eigenvalues --    0.41883   0.48932   0.58845   0.61157   0.67428
 Alpha virt. eigenvalues --    0.69496   0.77744   0.77902   0.86175   0.92831

 Mulliken charges:
               1
     1  H    0.155709
     2  C    0.178287
     3  C    0.175529
     4  O   -0.333735
     5  H    0.157104
     6  O   -0.332893
 Sum of Mulliken charges =  -0.00000

 Dipole moment (field-independent basis, Debye):
    X=             -0.0128    Y=              3.6445    Z=             -0.0011  Tot=              3.6446
 Quadrupole moment (field-independent basis, Debye-Ang):
   XX=            -25.4569   YY=            -21.2035   ZZ=            -20.8077
   XY=             -0.0221   XZ=              0.0281   YZ=              0.0015

 Normal termination of Gaussian 16 at Wed Jun  5 17:00:04 2019.
