 Gaussian 16, Revision A.03,
 Gaussian 16:  ES64L-G16RevA.03 25-Dec-2016

 ----------------
 # 6-31g(d) wb97x
 ----------------

 -----------------------
 tmpdir/M2_conf_1_14.gjf
 -----------------------
 Symbolic Z-matrix:
 Charge =  0 Multiplicity = 1

                         Standard orientation:
 ---------------------------------------------------------------------
 Center     Atomic      Atomic             Coordinates (Angstroms)
 Number     Number       Type             X           Y           Z
 ---------------------------------------------------------------------
      1          6           0        0.759753    0.001748    0.006561
      2          6           0       -0.762001    0.001008   -0.005323
      3          1           0       -1.089486   -0.155604   -1.052703
      4          1           0        1.111226    0.030724    1.055881
      5          1           0        1.129602   -0.925195   -0.447648
      6          1           0        1.160026    0.890806   -0.593181
      7          1           0       -1.131670   -0.834632    0.600960
      8          1           0       -1.166211    0.977364    0.429263
 ---------------------------------------------------------------------

 SCF Done:  E(RwB97X) =  -79.7968470230     A.U. after   12 cycles

 The electronic state is 1-A.
 Alpha  occ. eigenvalues --  -10.26083 -10.26057  -0.87905  -0.72367  -0.54539
 Alpha  occ. eigenvalues --   -0.54053  -0.45916  -0.43983  -0.43704
 Alpha virt. eigenvalues --    0.19179   0.25211   0.25271   0.25950   0.28127
 Alpha virt. eigenvalues --    0.28299   0.33525   0.61298   0.66151   0.66388
 Alpha virt. eigenvalues --    0.73615   0.74705   0.78854   0.97459   0.98851

 Mulliken charges:
               1
     1  C   -0.458124
     2  C   -0.457153
     3  H    0.154222
     4  H    0.154278
     5  H    0.156649
     6  H    0.146039
     7  H    0.156852
     8  H    0.147237
 Sum of Mulliken charges =  -0.00000

 Dipole moment (field-independent basis, Debye):
    X=              0.0021    Y=             -0.0845    Z=              0.0079  Tot=              0.0849
 Quadrupole moment (field-independent basis, Debye-Ang):
   XX=            -15.7797   YY=            -14.6783   ZZ=            -14.6326
   XY=             -0.0161   XZ=             -0.0855   YZ=              0.0079

 Normal termination of Gaussian 16 at Wed Jun  5 17:01:40 2019.
