 Gaussian 16, Revision A.03,
 Gaussian 16:  ES64L-G16RevA.03 25-Dec-2016

 ----------------
 # 6-31g(d) wb97x
 ----------------

 ------------------------
 tmpdir/M2_conf_1_110.gjf
 ------------------------
 Symbolic Z-matrix:
 Charge =  0 Multiplicity = 1

                         Standard orientation:
 ---------------------------------------------------------------------
 Center     Atomic      Atomic             Coordinates (Angstroms)
 Number     Number       Type             X           Y           Z
 ---------------------------------------------------------------------
      1          6           0       -0.692892   -0.012878   -0.004661
      2          6           0        0.701663   -0.002884    0.000389
      3          1           0        1.230611    0.935841   -0.001725
      4          1           0       -1.292247    0.923230    0.014066
      5          1           0       -1.197837   -0.885549    0.006967
      6          1           0        1.206846   -0.878947    0.006321
 ---------------------------------------------------------------------

 SCF Done:  E(RwB97X) =  -78.5428572840     A.U. after   13 cycles

 The electronic state is 1-A.
 Alpha  occ. eigenvalues --  -10.26909 -10.26647  -0.87656  -0.71045  -0.58228
 Alpha  occ. eigenvalues --   -0.51078  -0.47183  -0.35626
 Alpha virt. eigenvalues --    0.09895   0.22232   0.26009   0.26911   0.35000
 Alpha virt. eigenvalues --    0.40911   0.59873   0.65981   0.66622   0.74562
 Alpha virt. eigenvalues --    0.75766   0.77477   0.98742   1.00793   1.08430

 Mulliken charges:
               1
     1  C   -0.333581
     2  C   -0.332360
     3  H    0.165040
     4  H    0.159221
     5  H    0.170189
     6  H    0.171492
 Sum of Mulliken charges =   0.00000

 Dipole moment (field-independent basis, Debye):
    X=             -0.0044    Y=             -0.0530    Z=              0.0242  Tot=              0.0584
 Quadrupole moment (field-independent basis, Debye-Ang):
   XX=            -11.8214   YY=            -11.9474   ZZ=            -15.1394
   XY=             -0.0204   XZ=             -0.0213   YZ=             -0.0011

 Normal termination of Gaussian 16 at Wed Jun  5 17:01:59 2019.
