 Gaussian 16, Revision A.03,
 Gaussian 16:  ES64L-G16RevA.03 25-Dec-2016

 ----------------
 # 6-31g(d) wb97x
 ----------------

 ------------------------
 tmpdir/M2_conf_2_112.gjf
 ------------------------
 Symbolic Z-matrix:
 Charge =  0 Multiplicity = 1

                         Standard orientation:
 ---------------------------------------------------------------------
 Center     Atomic      Atomic             Coordinates (Angstroms)
 Number     Number       Type             X           Y           Z
 ---------------------------------------------------------------------
      1          1           0       -1.253372    1.438804    0.005828
      2          6           0       -0.710494    0.508068    0.001270
      3          6           0        0.686602    0.511103   -0.001515
      4          8           0       -1.309303   -0.565753   -0.001165
      5          8           0        1.323310   -0.558076    0.001254
      6          1           0        1.284670    1.436801   -0.005071
 ---------------------------------------------------------------------

 SCF Done:  E(RwB97X) =  -227.737003535     A.U. after   14 cycles

 The electronic state is 1-A.
 Alpha  occ. eigenvalues --  -19.25566 -19.25332 -10.38280 -10.38233  -1.21234
 Alpha  occ. eigenvalues --   -1.17003  -0.87690  -0.69443  -0.66998  -0.58012
 Alpha  occ. eigenvalues --   -0.56026  -0.54963  -0.47571  -0.40918  -0.38237
 Alpha virt. eigenvalues --   -0.03835   0.13942   0.20570   0.23452   0.26996
 Alpha virt. eigenvalues --    0.41733   0.48250   0.58964   0.60998   0.67424
 Alpha virt. eigenvalues --    0.69025   0.77034   0.77840   0.86148   0.92840

 Mulliken charges:
               1
     1  H    0.160414
     2  C    0.181111
     3  C    0.168051
     4  O   -0.331906
     5  O   -0.337577
     6  H    0.159907
 Sum of Mulliken charges =  -0.00000

 Dipole moment (field-independent basis, Debye):
    X=             -0.0990    Y=              3.7019    Z=             -0.0000  Tot=              3.7032
 Quadrupole moment (field-independent basis, Debye-Ang):
   XX=            -25.3918   YY=            -21.1787   ZZ=            -20.8614
   XY=             -0.0244   XZ=             -0.0109   YZ=              0.0005

 Normal termination of Gaussian 16 at Wed Jun  5 17:04:22 2019.
