 Gaussian 16, Revision A.03,
 Gaussian 16:  ES64L-G16RevA.03 25-Dec-2016

 ----------------
 # 6-31g(d) wb97x
 ----------------

 ------------------------
 tmpdir/M2_conf_1_184.gjf
 ------------------------
 Symbolic Z-matrix:
 Charge =  0 Multiplicity = 1

                         Standard orientation:
 ---------------------------------------------------------------------
 Center     Atomic      Atomic             Coordinates (Angstroms)
 Number     Number       Type             X           Y           Z
 ---------------------------------------------------------------------
      1          6           0        0.542348   -0.007328   -0.000611
      2          1           0        1.100374    0.923870    0.001212
      3          8           0       -0.684026    0.000642    0.000145
      4          1           0        1.117746   -0.885035    0.001297
 ---------------------------------------------------------------------

 SCF Done:  E(RwB97X) =  -114.463392536     A.U. after   14 cycles

 The electronic state is 1-A.
 Alpha  occ. eigenvalues --  -19.23367 -10.36499  -1.17216  -0.77094  -0.61299
 Alpha  occ. eigenvalues --   -0.55371  -0.49683  -0.37002
 Alpha virt. eigenvalues --    0.05467   0.21399   0.29185   0.31503   0.62019
 Alpha virt. eigenvalues --    0.71809   0.73114   0.79057   0.95895   0.96327
 Alpha virt. eigenvalues --    1.03520   1.07734   1.17475   1.48325   1.60887

 Mulliken charges:
               1
     1  C    0.057473
     2  H    0.137808
     3  O   -0.345139
     4  H    0.149857
 Sum of Mulliken charges =  -0.00000

 Dipole moment (field-independent basis, Debye):
    X=              2.4387    Y=             -0.0535    Z=              0.0002  Tot=              2.4393
 Quadrupole moment (field-independent basis, Debye-Ang):
   XX=            -11.7228   YY=            -11.3929   ZZ=            -11.3813
   XY=             -0.0758   XZ=              0.0011   YZ=              0.0001

 Normal termination of Gaussian 16 at Wed Jun  5 17:03:06 2019.
