 Gaussian 16, Revision A.03,
 Gaussian 16:  ES64L-G16RevA.03 25-Dec-2016

 ----------------
 # 6-31g(d) wb97x
 ----------------

 ------------------------
 tmpdir/M2_conf_0_165.gjf
 ------------------------
 Symbolic Z-matrix:
 Charge =  0 Multiplicity = 1

                         Standard orientation:
 ---------------------------------------------------------------------
 Center     Atomic      Atomic             Coordinates (Angstroms)
 Number     Number       Type             X           Y           Z
 ---------------------------------------------------------------------
      1          6           0        0.587693   -0.372824    0.097035
      2          6           0       -0.588747    0.398930    0.091269
      3          1           0        0.468013   -1.402676    0.283417
      4          6           0        1.845322    0.177607   -0.139275
      5          6           0       -1.826251   -0.202353   -0.140903
      6          1           0       -0.576120    1.394519    0.267826
 ---------------------------------------------------------------------

 SCF Done:  E(RwB97X) =  -153.247075681     A.U. after   18 cycles

 The electronic state is 1-A.
 Alpha  occ. eigenvalues --  -10.36711 -10.36671 -10.31179 -10.30827  -0.97889
 Alpha  occ. eigenvalues --   -0.85958  -0.69183  -0.67693  -0.57146  -0.46185
 Alpha  occ. eigenvalues --   -0.43186  -0.40226  -0.34029
 Alpha virt. eigenvalues --   -0.02482  -0.01028   0.03688   0.14386   0.22889
 Alpha virt. eigenvalues --    0.26602   0.36969   0.41638   0.43570   0.60933
 Alpha virt. eigenvalues --    0.61918   0.63014   0.65953   0.67219   0.68381

 Mulliken charges:
               1
     1  C   -0.274339
     2  C   -0.257101
     3  H    0.233767
     4  C    0.034876
     5  C    0.030611
     6  H    0.232186
 Sum of Mulliken charges =   0.00000

 Dipole moment (field-independent basis, Debye):
    X=             -0.1030    Y=              0.0399    Z=              0.6473  Tot=              0.6567
 Quadrupole moment (field-independent basis, Debye-Ang):
   XX=            -31.8273   YY=            -19.3904   ZZ=            -25.3151
   XY=             -3.8192   XZ=             -0.0333   YZ=             -0.0373

 Normal termination of Gaussian 16 at Wed Jun  5 17:00:32 2019.
