 Gaussian 16, Revision A.03,
 Gaussian 16:  ES64L-G16RevA.03 25-Dec-2016

 ----------------
 # 6-31g(d) wb97x
 ----------------

 ------------------------
 tmpdir/M2_conf_2_182.gjf
 ------------------------
 Symbolic Z-matrix:
 Charge =  0 Multiplicity = 1

                         Standard orientation:
 ---------------------------------------------------------------------
 Center     Atomic      Atomic             Coordinates (Angstroms)
 Number     Number       Type             X           Y           Z
 ---------------------------------------------------------------------
      1          6           0       -0.802452    0.483984   -0.000644
      2          6           0        0.573129    0.660025   -0.000131
      3          6           0        1.394189   -0.462923   -0.000514
      4          8           0       -1.253625   -0.660386   -0.000103
      5          1           0       -1.467861    1.341120    0.000288
      6          1           0        0.997629    1.659716    0.005629
      7          1           0        2.478157   -0.356399   -0.005038
      8          1           0        1.031884   -1.447866    0.007673
 ---------------------------------------------------------------------

 SCF Done:  E(RwB97X) =  -191.838854891     A.U. after   15 cycles

 The electronic state is 1-A.
 Alpha  occ. eigenvalues --  -19.20257 -10.34921 -10.30344 -10.28724  -1.15694
 Alpha  occ. eigenvalues --   -0.92040  -0.79389  -0.66628  -0.63004  -0.55558
 Alpha  occ. eigenvalues --   -0.52013  -0.50455  -0.49030  -0.36901  -0.35591
 Alpha virt. eigenvalues --    0.01093   0.17410   0.20466   0.23597   0.26622
 Alpha virt. eigenvalues --    0.29884   0.35029   0.41268   0.46344   0.62047
 Alpha virt. eigenvalues --    0.63676   0.68771   0.69042   0.70555   0.74587

 Mulliken charges:
               1
     1  C    0.212512
     2  C   -0.195320
     3  C   -0.300350
     4  O   -0.417723
     5  H    0.137876
     6  H    0.170495
     7  H    0.176370
     8  H    0.216139
 Sum of Mulliken charges =  -0.00000

 Dipole moment (field-independent basis, Debye):
    X=              2.0385    Y=              1.7428    Z=              0.0061  Tot=              2.6819
 Quadrupole moment (field-independent basis, Debye-Ang):
   XX=            -23.1751   YY=            -21.7002   ZZ=            -24.3264
   XY=             -3.3469   XZ=              0.0019   YZ=             -0.0005

 Normal termination of Gaussian 16 at Wed Jun  5 17:05:05 2019.
