 Gaussian 16, Revision A.03,
 Gaussian 16:  ES64L-G16RevA.03 25-Dec-2016

 ----------------
 # 6-31g(d) wb97x
 ----------------

 ------------------------
 tmpdir/M2_conf_2_111.gjf
 ------------------------
 Symbolic Z-matrix:
 Charge =  0 Multiplicity = 1

                         Standard orientation:
 ---------------------------------------------------------------------
 Center     Atomic      Atomic             Coordinates (Angstroms)
 Number     Number       Type             X           Y           Z
 ---------------------------------------------------------------------
      1          6           0       -1.418422   -0.471066   -0.005276
      2          6           0       -0.593425    0.653328   -0.000064
      3          6           0        0.793789    0.487467   -0.000812
      4          1           0       -2.527060   -0.392708    0.020351
      5          1           0       -1.020085   -1.397333   -0.000153
      6          1           0       -1.016721    1.644187    0.004831
      7          8           0        1.296605   -0.650827    0.001782
      8          1           0        1.499379    1.334096   -0.002377
 ---------------------------------------------------------------------

 SCF Done:  E(RwB97X) =  -191.836306273     A.U. after   14 cycles

 The electronic state is 1-A.
 Alpha  occ. eigenvalues --  -19.20364 -10.35386 -10.30441 -10.29107  -1.14918
 Alpha  occ. eigenvalues --   -0.92238  -0.79377  -0.66708  -0.63058  -0.55489
 Alpha  occ. eigenvalues --   -0.52258  -0.50001  -0.49204  -0.37033  -0.35557
 Alpha virt. eigenvalues --    0.00839   0.16996   0.20007   0.23870   0.26328
 Alpha virt. eigenvalues --    0.29945   0.34821   0.41366   0.45856   0.62052
 Alpha virt. eigenvalues --    0.62809   0.68497   0.68788   0.70440   0.74301

 Mulliken charges:
               1
     1  C   -0.298898
     2  C   -0.191880
     3  C    0.204124
     4  H    0.179874
     5  H    0.215105
     6  H    0.172670
     7  O   -0.421786
     8  H    0.140792
 Sum of Mulliken charges =  -0.00000

 Dipole moment (field-independent basis, Debye):
    X=             -2.1829    Y=              1.7427    Z=              0.0138  Tot=              2.7932
 Quadrupole moment (field-independent basis, Debye-Ang):
   XX=            -23.1178   YY=            -21.8481   ZZ=            -24.3751
   XY=              3.3633   XZ=             -0.0542   YZ=              0.0013

 Normal termination of Gaussian 16 at Wed Jun  5 17:04:15 2019.
