 Gaussian 16, Revision A.03,
 Gaussian 16:  ES64L-G16RevA.03 25-Dec-2016

 ----------------
 # 6-31g(d) wb97x
 ----------------

 -----------------------
 tmpdir/M2_conf_0_71.gjf
 -----------------------
 Symbolic Z-matrix:
 Charge =  0 Multiplicity = 1

                         Standard orientation:
 ---------------------------------------------------------------------
 Center     Atomic      Atomic             Coordinates (Angstroms)
 Number     Number       Type             X           Y           Z
 ---------------------------------------------------------------------
      1          6           0        0.703611    0.507859   -0.005783
      2          6           0       -0.692074    0.503329   -0.001113
      3          1           0       -1.230036    1.447754   -0.004295
      4          1           0        1.256182    1.454408    0.026155
      5          8           0        1.299880   -0.567934    0.000347
      6          8           0       -1.311801   -0.553227    0.002092
 ---------------------------------------------------------------------

 SCF Done:  E(RwB97X) =  -227.738779466     A.U. after   16 cycles

 The electronic state is 1-A.
 Alpha  occ. eigenvalues --  -19.25462 -19.25357 -10.38162 -10.37955  -1.21673
 Alpha  occ. eigenvalues --   -1.17493  -0.87695  -0.69183  -0.67035  -0.58130
 Alpha  occ. eigenvalues --   -0.56310  -0.55205  -0.47870  -0.41023  -0.38140
 Alpha virt. eigenvalues --   -0.03574   0.14244   0.20562   0.23705   0.27252
 Alpha virt. eigenvalues --    0.41530   0.48772   0.58907   0.61459   0.67338
 Alpha virt. eigenvalues --    0.69895   0.77603   0.77977   0.85939   0.92610

 Mulliken charges:
               1
     1  C    0.173709
     2  C    0.181104
     3  H    0.151774
     4  H    0.158342
     5  O   -0.332333
     6  O   -0.332597
 Sum of Mulliken charges =  -0.00000

 Dipole moment (field-independent basis, Debye):
    X=              0.0628    Y=              3.6560    Z=             -0.0048  Tot=              3.6565
 Quadrupole moment (field-independent basis, Debye-Ang):
   XX=            -25.4270   YY=            -21.1817   ZZ=            -20.8141
   XY=              0.0951   XZ=              0.0178   YZ=              0.0083

 Normal termination of Gaussian 16 at Wed Jun  5 16:59:43 2019.
