 Gaussian 16, Revision A.03,
 Gaussian 16:  ES64L-G16RevA.03 25-Dec-2016

 ----------------
 # 6-31g(d) wb97x
 ----------------

 ------------------------
 tmpdir/M2_conf_0_164.gjf
 ------------------------
 Symbolic Z-matrix:
 Charge =  0 Multiplicity = 1

                         Standard orientation:
 ---------------------------------------------------------------------
 Center     Atomic      Atomic             Coordinates (Angstroms)
 Number     Number       Type             X           Y           Z
 ---------------------------------------------------------------------
      1          1           0       -1.300210    0.894266    0.017522
      2          6           0       -0.702469   -0.009204   -0.002956
      3          6           0        0.690431    0.007574   -0.000840
      4          1           0       -1.132483   -0.919107   -0.003069
      5          1           0        1.247851   -0.886124    0.014542
      6          1           0        1.257070    0.920747   -0.006222
 ---------------------------------------------------------------------

 SCF Done:  E(RwB97X) =  -78.5461197234     A.U. after   13 cycles

 The electronic state is 1-A.
 Alpha  occ. eigenvalues --  -10.26986 -10.26649  -0.87647  -0.70895  -0.58116
 Alpha  occ. eigenvalues --   -0.51167  -0.47086  -0.35651
 Alpha virt. eigenvalues --    0.09932   0.22570   0.25377   0.27026   0.34981
 Alpha virt. eigenvalues --    0.40916   0.59907   0.66058   0.66596   0.74564
 Alpha virt. eigenvalues --    0.75755   0.77602   0.99849   1.00657   1.07011

 Mulliken charges:
               1
     1  H    0.168250
     2  C   -0.329697
     3  C   -0.337764
     4  H    0.169264
     5  H    0.166677
     6  H    0.163270
 Sum of Mulliken charges =  -0.00000

 Dipole moment (field-independent basis, Debye):
    X=              0.0111    Y=             -0.0379    Z=              0.0216  Tot=              0.0450
 Quadrupole moment (field-independent basis, Debye-Ang):
   XX=            -11.7978   YY=            -11.9732   ZZ=            -15.1473
   XY=             -0.1080   XZ=             -0.0095   YZ=              0.0006

 Normal termination of Gaussian 16 at Wed Jun  5 17:00:46 2019.
