 Gaussian 16, Revision A.03,
 Gaussian 16:  ES64L-G16RevA.03 25-Dec-2016

 ----------------
 # 6-31g(d) wb97x
 ----------------

 -----------------------
 tmpdir/M2_conf_1_43.gjf
 -----------------------
 Symbolic Z-matrix:
 Charge =  0 Multiplicity = 1

                         Standard orientation:
 ---------------------------------------------------------------------
 Center     Atomic      Atomic             Coordinates (Angstroms)
 Number     Number       Type             X           Y           Z
 ---------------------------------------------------------------------
      1          6           0       -0.001393    0.002385   -0.000743
      2          1           0       -0.571989   -0.573307   -0.754258
      3          1           0       -0.358950    1.043802    0.003542
      4          1           0       -0.182734   -0.452749    0.979098
      5          1           0        1.122032   -0.032054   -0.223922
 ---------------------------------------------------------------------

 SCF Done:  E(RwB97X) =  -40.4976044038     A.U. after   11 cycles

 The electronic state is 1-A.
 Alpha  occ. eigenvalues --  -10.25715  -0.81231  -0.49515  -0.49183  -0.48767
 Alpha virt. eigenvalues --    0.21077   0.26344   0.27120   0.27433   0.63989
 Alpha virt. eigenvalues --    0.64257   0.65630   0.98594   1.00799   1.01438
 Alpha virt. eigenvalues --    1.05015   1.20204   1.76034   1.76242   2.29693

 Mulliken charges:
               1
     1  C   -0.658544
     2  H    0.165820
     3  H    0.167823
     4  H    0.168209
     5  H    0.156692
 Sum of Mulliken charges =   0.00000

 Dipole moment (field-independent basis, Debye):
    X=             -0.0394    Y=             -0.0071    Z=              0.0222  Tot=              0.0458
 Quadrupole moment (field-independent basis, Debye-Ang):
   XX=             -8.2282   YY=             -8.3000   ZZ=             -8.3754
   XY=             -0.0016   XZ=              0.0148   YZ=             -0.0095

 Normal termination of Gaussian 16 at Wed Jun  5 17:01:34 2019.
