 Gaussian 16, Revision A.03,
 Gaussian 16:  ES64L-G16RevA.03 25-Dec-2016

 ----------------
 # 6-31g(d) wb97x
 ----------------

 ------------------------
 tmpdir/M2_conf_1_124.gjf
 ------------------------
 Symbolic Z-matrix:
 Charge =  0 Multiplicity = 1

                         Standard orientation:
 ---------------------------------------------------------------------
 Center     Atomic      Atomic             Coordinates (Angstroms)
 Number     Number       Type             X           Y           Z
 ---------------------------------------------------------------------
      1          6           0        0.706275   -0.011995   -0.000177
      2          6           0       -0.711120   -0.008154   -0.000146
      3          1           0        1.177209   -0.900504    0.000949
      4          1           0        1.278666    0.917498    0.000078
      5          1           0       -1.229026   -0.876774    0.000069
      6          1           0       -1.197782    0.980671    0.000840
 ---------------------------------------------------------------------

 SCF Done:  E(RwB97X) =  -78.5386451194     A.U. after   12 cycles

 The electronic state is 1-A.
 Alpha  occ. eigenvalues --  -10.27141 -10.26925  -0.87281  -0.70965  -0.58444
 Alpha  occ. eigenvalues --   -0.50330  -0.47587  -0.35238
 Alpha virt. eigenvalues --    0.09464   0.21836   0.26275   0.26937   0.34739
 Alpha virt. eigenvalues --    0.39792   0.60205   0.66357   0.66872   0.74392
 Alpha virt. eigenvalues --    0.75571   0.76333   0.99286   1.00216   1.07742

 Mulliken charges:
               1
     1  C   -0.335525
     2  C   -0.335435
     3  H    0.170137
     4  H    0.165394
     5  H    0.174436
     6  H    0.160994
 Sum of Mulliken charges =  -0.00000

 Dipole moment (field-independent basis, Debye):
    X=              0.0193    Y=             -0.0449    Z=              0.0019  Tot=              0.0489
 Quadrupole moment (field-independent basis, Debye-Ang):
   XX=            -11.9649   YY=            -11.8229   ZZ=            -15.2110
   XY=              0.1383   XZ=              0.0002   YZ=             -0.0000

 Normal termination of Gaussian 16 at Wed Jun  5 17:02:38 2019.
