 Gaussian 16, Revision A.03,
 Gaussian 16:  ES64L-G16RevA.03 25-Dec-2016

 ----------------
 # 6-31g(d) wb97x
 ----------------

 ------------------------
 tmpdir/M2_conf_1_132.gjf
 ------------------------
 Symbolic Z-matrix:
 Charge =  0 Multiplicity = 1

                         Standard orientation:
 ---------------------------------------------------------------------
 Center     Atomic      Atomic             Coordinates (Angstroms)
 Number     Number       Type             X           Y           Z
 ---------------------------------------------------------------------
      1          6           0       -0.228130    0.437334    0.000195
      2          6           0        1.164918   -0.140145   -0.000143
      3          1           0        1.355661   -0.766110   -0.881841
      4          1           0       -0.366930    1.433305   -0.000674
      5          8           0       -1.234692   -0.294351   -0.000118
      6          1           0        1.910695    0.659425   -0.006221
      7          1           0        1.357384   -0.754949    0.889371
 ---------------------------------------------------------------------

 SCF Done:  E(RwB97X) =  -153.774270218     A.U. after   14 cycles

 The electronic state is 1-A.
 Alpha  occ. eigenvalues --  -19.21278 -10.35865 -10.28021  -1.15120  -0.88039
 Alpha  occ. eigenvalues --   -0.72386  -0.58905  -0.55023  -0.53986  -0.49835
 Alpha  occ. eigenvalues --   -0.45444  -0.35647
 Alpha virt. eigenvalues --    0.06188   0.20873   0.22500   0.27209   0.28288
 Alpha virt. eigenvalues --    0.34900   0.36660   0.63183   0.63521   0.67907
 Alpha virt. eigenvalues --    0.72176   0.75800   0.83088   0.87501   0.96233

 Mulliken charges:
               1
     1  C    0.226206
     2  C   -0.562230
     3  H    0.205891
     4  H    0.155841
     5  O   -0.396552
     6  H    0.165146
     7  H    0.205698
 Sum of Mulliken charges =  -0.00000

 Dipole moment (field-independent basis, Debye):
    X=              2.5047    Y=              1.2392    Z=              0.0016  Tot=              2.7945
 Quadrupole moment (field-independent basis, Debye-Ang):
   XX=            -20.6668   YY=            -17.3304   ZZ=            -17.4633
   XY=             -1.4113   XZ=              0.0001   YZ=              0.0004

 Normal termination of Gaussian 16 at Wed Jun  5 17:02:28 2019.
