 Gaussian 16, Revision A.03,
 Gaussian 16:  ES64L-G16RevA.03 25-Dec-2016

 ----------------
 # 6-31g(d) wb97x
 ----------------

 -----------------------
 tmpdir/M2_conf_1_62.gjf
 -----------------------
 Symbolic Z-matrix:
 Charge =  0 Multiplicity = 1

                         Standard orientation:
 ---------------------------------------------------------------------
 Center     Atomic      Atomic             Coordinates (Angstroms)
 Number     Number       Type             X           Y           Z
 ---------------------------------------------------------------------
      1          1           0        1.108173   -1.187811   -0.368254
      2          6           0        1.164183   -0.142325   -0.005645
      3          6           0       -0.233311    0.441900   -0.004879
      4          1           0        1.915213    0.474803   -0.602943
      5          1           0        1.526194   -0.193278    1.030238
      6          1           0       -0.369894    1.442211    0.033046
      7          8           0       -1.220614   -0.291672   -0.003618
 ---------------------------------------------------------------------

 SCF Done:  E(RwB97X) =  -153.775819075     A.U. after   15 cycles

 The electronic state is 1-A.
 Alpha  occ. eigenvalues --  -19.21350 -10.35803 -10.28491  -1.15977  -0.87503
 Alpha  occ. eigenvalues --   -0.72125  -0.58859  -0.54816  -0.53587  -0.50046
 Alpha  occ. eigenvalues --   -0.45775  -0.35650
 Alpha virt. eigenvalues --    0.06969   0.20361   0.23459   0.25404   0.26182
 Alpha virt. eigenvalues --    0.34931   0.37698   0.63271   0.64039   0.70101
 Alpha virt. eigenvalues --    0.71028   0.76771   0.82544   0.85398   0.95004

 Mulliken charges:
               1
     1  H    0.201078
     2  C   -0.562999
     3  C    0.240585
     4  H    0.167920
     5  H    0.195541
     6  H    0.149324
     7  O   -0.391449
 Sum of Mulliken charges =  -0.00000

 Dipole moment (field-independent basis, Debye):
    X=              2.3898    Y=              1.3051    Z=              0.1227  Tot=              2.7257
 Quadrupole moment (field-independent basis, Debye-Ang):
   XX=            -20.6881   YY=            -17.3282   ZZ=            -17.6157
   XY=             -1.1236   XZ=              0.1248   YZ=             -0.0491

 Normal termination of Gaussian 16 at Wed Jun  5 17:01:54 2019.
