 Gaussian 16, Revision A.03,
 Gaussian 16:  ES64L-G16RevA.03 25-Dec-2016

 ----------------
 # 6-31g(d) wb97x
 ----------------

 -----------------------
 tmpdir/M2_conf_1_77.gjf
 -----------------------
 Symbolic Z-matrix:
 Charge =  0 Multiplicity = 1

                         Standard orientation:
 ---------------------------------------------------------------------
 Center     Atomic      Atomic             Coordinates (Angstroms)
 Number     Number       Type             X           Y           Z
 ---------------------------------------------------------------------
      1          6           0        1.420713   -0.462703   -0.000482
      2          6           0        0.581108    0.644185   -0.004645
      3          6           0       -0.806684    0.484062   -0.007654
      4          1           0        1.038364   -1.397854   -0.003378
      5          1           0        2.500726   -0.340578    0.002025
      6          1           0        1.019277    1.639566    0.035648
      7          8           0       -1.277678   -0.651252    0.005047
      8          1           0       -1.507767    1.315617    0.002020
 ---------------------------------------------------------------------

 SCF Done:  E(RwB97X) =  -191.837423769     A.U. after   15 cycles

 The electronic state is 1-A.
 Alpha  occ. eigenvalues --  -19.20358 -10.35124 -10.29898 -10.28874  -1.15810
 Alpha  occ. eigenvalues --   -0.92088  -0.79373  -0.66799  -0.63267  -0.55446
 Alpha  occ. eigenvalues --   -0.52651  -0.50451  -0.49062  -0.37031  -0.35606
 Alpha virt. eigenvalues --    0.01138   0.17286   0.20370   0.24236   0.26479
 Alpha virt. eigenvalues --    0.30340   0.34987   0.41386   0.46212   0.62027
 Alpha virt. eigenvalues --    0.62841   0.68486   0.68799   0.70731   0.74673

 Mulliken charges:
               1
     1  C   -0.299669
     2  C   -0.195818
     3  C    0.206875
     4  H    0.212633
     5  H    0.180772
     6  H    0.167580
     7  O   -0.413451
     8  H    0.141078
 Sum of Mulliken charges =  -0.00000

 Dipole moment (field-independent basis, Debye):
    X=              2.0396    Y=              1.7442    Z=              0.0089  Tot=              2.6837
 Quadrupole moment (field-independent basis, Debye-Ang):
   XX=            -22.9555   YY=            -21.9333   ZZ=            -24.3047
   XY=             -3.3059   XZ=              0.0567   YZ=              0.0617

 Normal termination of Gaussian 16 at Wed Jun  5 17:02:02 2019.
