 Gaussian 16, Revision A.03,
 Gaussian 16:  ES64L-G16RevA.03 25-Dec-2016

 ----------------
 # 6-31g(d) wb97x
 ----------------

 -----------------------
 tmpdir/M2_conf_2_92.gjf
 -----------------------
 Symbolic Z-matrix:
 Charge =  0 Multiplicity = 1

                         Standard orientation:
 ---------------------------------------------------------------------
 Center     Atomic      Atomic             Coordinates (Angstroms)
 Number     Number       Type             X           Y           Z
 ---------------------------------------------------------------------
      1          6           0       -1.474240   -0.476364    0.053328
      2          6           0       -0.650779    0.641162   -0.077515
      3          6           0        0.831754    0.470103    0.097539
      4          1           0       -2.469475   -0.389116   -0.058539
      5          1           0       -1.017054   -1.434023    0.285525
      6          1           0       -1.066174    1.534242   -0.306815
      7          8           0        1.369536   -0.609519   -0.096767
      8          1           0        1.356004    1.355643    0.413860
 ---------------------------------------------------------------------

 SCF Done:  E(RwB97X) =  -191.835551825     A.U. after   16 cycles

 The electronic state is 1-A.
 Alpha  occ. eigenvalues --  -19.21675 -10.36417 -10.29155 -10.28586  -1.16573
 Alpha  occ. eigenvalues --   -0.91282  -0.78419  -0.67774  -0.62900  -0.55172
 Alpha  occ. eigenvalues --   -0.53522  -0.50233  -0.49303  -0.37350  -0.35866
 Alpha virt. eigenvalues --    0.02498   0.14345   0.22610   0.23454   0.26673
 Alpha virt. eigenvalues --    0.30112   0.35650   0.40149   0.42733   0.62350
 Alpha virt. eigenvalues --    0.63062   0.67967   0.68839   0.70080   0.74951

 Mulliken charges:
               1
     1  C   -0.316141
     2  C   -0.203326
     3  C    0.211179
     4  H    0.184090
     5  H    0.200591
     6  H    0.173613
     7  O   -0.391840
     8  H    0.141833
 Sum of Mulliken charges =  -0.00000

 Dipole moment (field-independent basis, Debye):
    X=             -1.9263    Y=              1.7803    Z=              0.3690  Tot=              2.6489
 Quadrupole moment (field-independent basis, Debye-Ang):
   XX=            -23.5090   YY=            -21.7177   ZZ=            -24.2468
   XY=              2.9558   XZ=              0.7016   YZ=             -0.6199

 Normal termination of Gaussian 16 at Wed Jun  5 17:04:31 2019.
