 Gaussian 16, Revision A.03,
 Gaussian 16:  ES64L-G16RevA.03 25-Dec-2016

 ----------------
 # 6-31g(d) wb97x
 ----------------

 ------------------------
 tmpdir/M2_conf_2_177.gjf
 ------------------------
 Symbolic Z-matrix:
 Charge =  0 Multiplicity = 1

                         Standard orientation:
 ---------------------------------------------------------------------
 Center     Atomic      Atomic             Coordinates (Angstroms)
 Number     Number       Type             X           Y           Z
 ---------------------------------------------------------------------
      1          6           0       -1.386622   -0.478417   -0.001425
      2          6           0       -0.579093    0.659458   -0.001081
      3          6           0        0.796881    0.486542    0.000063
      4          1           0       -2.457258   -0.385275    0.004976
      5          1           0       -0.928262   -1.379720    0.007619
      6          1           0       -1.019877    1.650993    0.000255
      7          1           0        1.457492    1.348620    0.006583
      8          8           0        1.245114   -0.655013   -0.000597
 ---------------------------------------------------------------------

 SCF Done:  E(RwB97X) =  -191.835044443     A.U. after   15 cycles

 The electronic state is 1-A.
 Alpha  occ. eigenvalues --  -19.20322 -10.34961 -10.29700 -10.28529  -1.16021
 Alpha  occ. eigenvalues --   -0.92130  -0.79530  -0.66487  -0.63504  -0.55551
 Alpha  occ. eigenvalues --   -0.52399  -0.50622  -0.49229  -0.36815  -0.35697
 Alpha virt. eigenvalues --    0.01108   0.17419   0.20797   0.24161   0.26930
 Alpha virt. eigenvalues --    0.30764   0.34964   0.41044   0.46345   0.62080
 Alpha virt. eigenvalues --    0.63320   0.68834   0.69156   0.70421   0.75101

 Mulliken charges:
               1
     1  C   -0.297156
     2  C   -0.204146
     3  C    0.215773
     4  H    0.182456
     5  H    0.216342
     6  H    0.168132
     7  H    0.138137
     8  O   -0.419538
 Sum of Mulliken charges =  -0.00000

 Dipole moment (field-independent basis, Debye):
    X=             -1.9979    Y=              1.7562    Z=              0.0134  Tot=              2.6601
 Quadrupole moment (field-independent basis, Debye-Ang):
   XX=            -23.0794   YY=            -21.8623   ZZ=            -24.2671
   XY=              3.1713   XZ=             -0.0127   YZ=             -0.0080

 Normal termination of Gaussian 16 at Wed Jun  5 17:05:01 2019.
