 Gaussian 16, Revision A.03,
 Gaussian 16:  ES64L-G16RevA.03 25-Dec-2016

 ----------------
 # 6-31g(d) wb97x
 ----------------

 ------------------------
 tmpdir/M2_conf_0_101.gjf
 ------------------------
 Symbolic Z-matrix:
 Charge =  0 Multiplicity = 1

                         Standard orientation:
 ---------------------------------------------------------------------
 Center     Atomic      Atomic             Coordinates (Angstroms)
 Number     Number       Type             X           Y           Z
 ---------------------------------------------------------------------
      1          6           0       -1.264470    0.303356   -0.061833
      2          7           0       -0.028793    0.894268   -0.063721
      3          6           0        1.255600    0.332591    0.124396
      4          1           0       -2.098547    0.985526   -0.210296
      5          8           0       -1.449684   -0.892344    0.107176
      6          1           0       -0.021859    1.902241   -0.018764
      7          8           0        1.498206   -0.846574   -0.125372
      8          1           0        1.986994    0.948014    0.445295
 ---------------------------------------------------------------------

 SCF Done:  E(RwB97X) =  -283.126861780     A.U. after   17 cycles

 The electronic state is 1-A.
 Alpha  occ. eigenvalues --  -19.21936 -19.20931 -14.47932 -10.40017 -10.39853
 Alpha  occ. eigenvalues --   -1.19380  -1.16475  -1.07420  -0.83531  -0.71303
 Alpha  occ. eigenvalues --   -0.70049  -0.62680  -0.56470  -0.55037  -0.53232
 Alpha  occ. eigenvalues --   -0.48971  -0.40057  -0.39226  -0.36177
 Alpha virt. eigenvalues --    0.04612   0.13333   0.15582   0.22157   0.24346
 Alpha virt. eigenvalues --    0.32615   0.34138   0.39922   0.44702   0.59243
 Alpha virt. eigenvalues --    0.60146   0.65211   0.70031   0.73219   0.74758

 Mulliken charges:
               1
     1  C    0.341123
     2  N   -0.596886
     3  C    0.347510
     4  H    0.153901
     5  O   -0.391368
     6  H    0.349774
     7  O   -0.376475
     8  H    0.172421
 Sum of Mulliken charges =  -0.00000

 Dipole moment (field-independent basis, Debye):
    X=              0.1655    Y=              5.8206    Z=              0.3551  Tot=              5.8338
 Quadrupole moment (field-independent basis, Debye-Ang):
   XX=            -28.2451   YY=            -26.5326   ZZ=            -27.7051
   XY=              0.0433   XZ=              1.5440   YZ=              0.2502

 Normal termination of Gaussian 16 at Wed Jun  5 16:59:59 2019.
