 Gaussian 16, Revision A.03,
 Gaussian 16:  ES64L-G16RevA.03 25-Dec-2016

 ----------------
 # 6-31g(d) wb97x
 ----------------

 ----------------------
 tmpdir/M2_conf_2_7.gjf
 ----------------------
 Symbolic Z-matrix:
 Charge =  0 Multiplicity = 1

                         Standard orientation:
 ---------------------------------------------------------------------
 Center     Atomic      Atomic             Coordinates (Angstroms)
 Number     Number       Type             X           Y           Z
 ---------------------------------------------------------------------
      1          1           0       -1.144275   -0.863631    0.550820
      2          6           0       -0.761048    0.000460   -0.004875
      3          6           0        0.760721    0.000656    0.005076
      4          1           0       -1.107348   -0.087313   -1.052649
      5          1           0       -1.153146    0.957280    0.486135
      6          1           0        1.129487   -0.899322   -0.501464
      7          1           0        1.112746   -0.034006    1.055625
      8          1           0        1.164501    0.920294   -0.539674
 ---------------------------------------------------------------------

 SCF Done:  E(RwB97X) =  -79.7971755291     A.U. after   12 cycles

 The electronic state is 1-A.
 Alpha  occ. eigenvalues --  -10.26090 -10.26070  -0.87876  -0.72425  -0.54446
 Alpha  occ. eigenvalues --   -0.54048  -0.46002  -0.43973  -0.43701
 Alpha virt. eigenvalues --    0.19219   0.25186   0.25276   0.25895   0.28125
 Alpha virt. eigenvalues --    0.28355   0.33594   0.61340   0.66091   0.66261
 Alpha virt. eigenvalues --    0.73747   0.74774   0.78854   0.97435   0.98858

 Mulliken charges:
               1
     1  H    0.157232
     2  C   -0.457703
     3  C   -0.457969
     4  H    0.154600
     5  H    0.145954
     6  H    0.156535
     7  H    0.154237
     8  H    0.147113
 Sum of Mulliken charges =  -0.00000

 Dipole moment (field-independent basis, Debye):
    X=              0.0009    Y=             -0.0829    Z=             -0.0004  Tot=              0.0829
 Quadrupole moment (field-independent basis, Debye-Ang):
   XX=            -15.7355   YY=            -14.6811   ZZ=            -14.6523
   XY=              0.0263   XZ=             -0.0642   YZ=             -0.0038

 Normal termination of Gaussian 16 at Wed Jun  5 17:03:42 2019.
