 Gaussian 16, Revision A.03,
 Gaussian 16:  ES64L-G16RevA.03 25-Dec-2016

 ----------------
 # 6-31g(d) wb97x
 ----------------

 ------------------------
 tmpdir/M2_conf_2_178.gjf
 ------------------------
 Symbolic Z-matrix:
 Charge =  0 Multiplicity = 1

                         Standard orientation:
 ---------------------------------------------------------------------
 Center     Atomic      Atomic             Coordinates (Angstroms)
 Number     Number       Type             X           Y           Z
 ---------------------------------------------------------------------
      1          1           0       -1.250427    1.445884   -0.000463
      2          6           0       -0.693052    0.514877   -0.000837
      3          6           0        0.693741    0.512410   -0.000461
      4          8           0       -1.278531   -0.566950    0.000612
      5          1           0        1.243381    1.449153    0.004638
      6          8           0        1.278895   -0.565395   -0.000161
 ---------------------------------------------------------------------

 SCF Done:  E(RwB97X) =  -227.735950029     A.U. after   14 cycles

 The electronic state is 1-A.
 Alpha  occ. eigenvalues --  -19.25251 -19.25239 -10.37856 -10.37805  -1.21741
 Alpha  occ. eigenvalues --   -1.17199  -0.87758  -0.69288  -0.67226  -0.58035
 Alpha  occ. eigenvalues --   -0.56339  -0.55071  -0.47623  -0.40652  -0.38270
 Alpha virt. eigenvalues --   -0.03539   0.14340   0.20819   0.23819   0.27285
 Alpha virt. eigenvalues --    0.41357   0.49533   0.58897   0.61104   0.67359
 Alpha virt. eigenvalues --    0.69851   0.77664   0.78531   0.86500   0.92842

 Mulliken charges:
               1
     1  H    0.158255
     2  C    0.174120
     3  C    0.177044
     4  O   -0.333177
     5  H    0.155864
     6  O   -0.332106
 Sum of Mulliken charges =  -0.00000

 Dipole moment (field-independent basis, Debye):
    X=             -0.0042    Y=              3.7157    Z=             -0.0009  Tot=              3.7157
 Quadrupole moment (field-independent basis, Debye-Ang):
   XX=            -25.2378   YY=            -21.1121   ZZ=            -20.7917
   XY=             -0.0266   XZ=              0.0040   YZ=              0.0015

 Normal termination of Gaussian 16 at Wed Jun  5 17:05:07 2019.
