 Gaussian 16, Revision A.03,
 Gaussian 16:  ES64L-G16RevA.03 25-Dec-2016

 ----------------
 # 6-31g(d) wb97x
 ----------------

 ------------------------
 tmpdir/M2_conf_1_165.gjf
 ------------------------
 Symbolic Z-matrix:
 Charge =  0 Multiplicity = 1

                         Standard orientation:
 ---------------------------------------------------------------------
 Center     Atomic      Atomic             Coordinates (Angstroms)
 Number     Number       Type             X           Y           Z
 ---------------------------------------------------------------------
      1          6           0       -0.625401    0.380965    0.096972
      2          6           0        0.626924   -0.406985    0.091341
      3          1           0       -0.525316    1.412965    0.283030
      4          6           0       -1.872323   -0.193314   -0.139323
      5          6           0        1.852825    0.217602   -0.140866
      6          1           0        0.633172   -1.402576    0.268225
 ---------------------------------------------------------------------

 SCF Done:  E(RwB97X) =  -153.250130934     A.U. after   18 cycles

 The electronic state is 1-A.
 Alpha  occ. eigenvalues --  -10.36802 -10.36778 -10.31799 -10.31435  -0.96574
 Alpha  occ. eigenvalues --   -0.86250  -0.68615  -0.67133  -0.56866  -0.45373
 Alpha  occ. eigenvalues --   -0.43118  -0.40407  -0.34609
 Alpha virt. eigenvalues --   -0.02938  -0.00759   0.04065   0.13705   0.22812
 Alpha virt. eigenvalues --    0.26401   0.35550   0.40447   0.43352   0.59757
 Alpha virt. eigenvalues --    0.61177   0.63057   0.66087   0.67054   0.68286

 Mulliken charges:
               1
     1  C   -0.278402
     2  C   -0.264649
     3  H    0.235333
     4  C    0.039170
     5  C    0.034999
     6  H    0.233549
 Sum of Mulliken charges =  -0.00000

 Dipole moment (field-independent basis, Debye):
    X=              0.0996    Y=             -0.0322    Z=              0.6410  Tot=              0.6494
 Quadrupole moment (field-independent basis, Debye-Ang):
   XX=            -31.8104   YY=            -19.4178   ZZ=            -25.4349
   XY=             -4.0390   XZ=              0.0345   YZ=              0.0359

 Normal termination of Gaussian 16 at Wed Jun  5 17:02:40 2019.
