 Gaussian 16, Revision A.03,
 Gaussian 16:  ES64L-G16RevA.03 25-Dec-2016

 ----------------
 # 6-31g(d) wb97x
 ----------------

 -----------------------
 tmpdir/M2_conf_2_75.gjf
 -----------------------
 Symbolic Z-matrix:
 Charge =  0 Multiplicity = 1

                         Standard orientation:
 ---------------------------------------------------------------------
 Center     Atomic      Atomic             Coordinates (Angstroms)
 Number     Number       Type             X           Y           Z
 ---------------------------------------------------------------------
      1          6           0        0.695285    0.485711   -0.004225
      2          6           0       -0.701509    0.487782   -0.007459
      3          6           0        1.396532   -0.713620   -0.000856
      4          1           0        1.249420    1.421469    0.036915
      5          6           0       -1.381658   -0.729300    0.005920
      6          1           0       -1.301320    1.395091    0.002802
 ---------------------------------------------------------------------

 SCF Done:  E(RwB97X) =  -153.248103496     A.U. after   18 cycles

 The electronic state is 1-A.
 Alpha  occ. eigenvalues --  -10.36195 -10.36119 -10.31258 -10.31194  -0.98001
 Alpha  occ. eigenvalues --   -0.84708  -0.72011  -0.60640  -0.59467  -0.46744
 Alpha  occ. eigenvalues --   -0.42482  -0.40009  -0.33310
 Alpha virt. eigenvalues --   -0.03357   0.00670   0.02685   0.16800   0.20998
 Alpha virt. eigenvalues --    0.24799   0.35035   0.45878   0.48161   0.58286
 Alpha virt. eigenvalues --    0.60894   0.63305   0.66168   0.66590   0.69145

 Mulliken charges:
               1
     1  C   -0.270924
     2  C   -0.268941
     3  C    0.032924
     4  H    0.236687
     5  C    0.034087
     6  H    0.236168
 Sum of Mulliken charges =  -0.00000

 Dipole moment (field-independent basis, Debye):
    X=             -0.0706    Y=              3.4536    Z=              0.0413  Tot=              3.4545
 Quadrupole moment (field-independent basis, Debye-Ang):
   XX=            -24.0674   YY=            -23.5005   ZZ=            -25.4613
   XY=             -0.0061   XZ=              0.1034   YZ=              0.1017

 Normal termination of Gaussian 16 at Wed Jun  5 17:03:56 2019.
