 Gaussian 16, Revision A.03,
 Gaussian 16:  ES64L-G16RevA.03 25-Dec-2016

 ----------------
 # 6-31g(d) wb97x
 ----------------

 ------------------------
 tmpdir/M2_conf_0_133.gjf
 ------------------------
 Symbolic Z-matrix:
 Charge =  0 Multiplicity = 1

                         Standard orientation:
 ---------------------------------------------------------------------
 Center     Atomic      Atomic             Coordinates (Angstroms)
 Number     Number       Type             X           Y           Z
 ---------------------------------------------------------------------
      1          6           0       -0.228052    0.437337    0.000274
      2          6           0        1.164962   -0.140222   -0.000146
      3          1           0        1.359958   -0.755451    0.888525
      4          1           0       -0.366795    1.433316   -0.000826
      5          8           0       -1.234657   -0.294289    0.000127
      6          1           0        1.910786    0.659304   -0.006366
      7          1           0        1.351847   -0.765551   -0.883121
 ---------------------------------------------------------------------

 SCF Done:  E(RwB97X) =  -153.774281766     A.U. after   14 cycles

 The electronic state is 1-A.
 Alpha  occ. eigenvalues --  -19.21277 -10.35864 -10.28022  -1.15119  -0.88039
 Alpha  occ. eigenvalues --   -0.72383  -0.58903  -0.55029  -0.53982  -0.49837
 Alpha  occ. eigenvalues --   -0.45445  -0.35646
 Alpha virt. eigenvalues --    0.06190   0.20873   0.22502   0.27207   0.28285
 Alpha virt. eigenvalues --    0.34900   0.36658   0.63187   0.63520   0.67907
 Alpha virt. eigenvalues --    0.72171   0.75801   0.83091   0.87491   0.96232

 Mulliken charges:
               1
     1  C    0.226141
     2  C   -0.562133
     3  H    0.205740
     4  H    0.155821
     5  O   -0.396567
     6  H    0.165154
     7  H    0.205844
 Sum of Mulliken charges =  -0.00000

 Dipole moment (field-independent basis, Debye):
    X=              2.5045    Y=              1.2392    Z=              0.0008  Tot=              2.7943
 Quadrupole moment (field-independent basis, Debye-Ang):
   XX=            -20.6690   YY=            -17.3308   ZZ=            -17.4620
   XY=             -1.4094   XZ=              0.0066   YZ=              0.0020

 Normal termination of Gaussian 16 at Wed Jun  5 17:00:27 2019.
