 Gaussian 16, Revision A.03,
 Gaussian 16:  ES64L-G16RevA.03 25-Dec-2016

 ----------------
 # 6-31g(d) wb97x
 ----------------

 ---------------------
 tmpdir/M2_ref_165.gjf
 ---------------------
 Symbolic Z-matrix:
 Charge =  0 Multiplicity = 1

                         Standard orientation:
 ---------------------------------------------------------------------
 Center     Atomic      Atomic             Coordinates (Angstroms)
 Number     Number       Type             X           Y           Z
 ---------------------------------------------------------------------
      1          6           0       -0.628027    0.381488    0.096976
      2          6           0        0.629610   -0.407529    0.091332
      3          1           0       -0.529218    1.413571    0.283025
      4          6           0       -1.874202   -0.194371   -0.139327
      5          6           0        1.854638    0.218666   -0.140863
      6          1           0        0.637100   -1.403100    0.268263
 ---------------------------------------------------------------------

 SCF Done:  E(RwB97X) =  -153.250090290     A.U. after   18 cycles

 The electronic state is 1-A.
 Alpha  occ. eigenvalues --  -10.36807 -10.36784 -10.31840 -10.31475  -0.96490
 Alpha  occ. eigenvalues --   -0.86272  -0.68580  -0.67097  -0.56841  -0.45321
 Alpha  occ. eigenvalues --   -0.43114  -0.40418  -0.34648
 Alpha virt. eigenvalues --   -0.02971  -0.00741   0.04091   0.13660   0.22803
 Alpha virt. eigenvalues --    0.26387   0.35429   0.40370   0.43338   0.59619
 Alpha virt. eigenvalues --    0.61188   0.63061   0.66095   0.67044   0.68277

 Mulliken charges:
               1
     1  C   -0.278639
     2  C   -0.265096
     3  H    0.235426
     4  C    0.039426
     5  C    0.035254
     6  H    0.233630
 Sum of Mulliken charges =  -0.00000

 Dipole moment (field-independent basis, Debye):
    X=              0.0994    Y=             -0.0318    Z=              0.6406  Tot=              0.6491
 Quadrupole moment (field-independent basis, Debye-Ang):
   XX=            -31.8088   YY=            -19.4199   ZZ=            -25.4424
   XY=             -4.0544   XZ=              0.0346   YZ=              0.0358

 Normal termination of Gaussian 16 at Wed Jun  5 16:58:23 2019.
