 Gaussian 16, Revision A.03,
 Gaussian 16:  ES64L-G16RevA.03 25-Dec-2016

 ----------------
 # 6-31g(d) wb97x
 ----------------

 ---------------------
 tmpdir/M2_ref_126.gjf
 ---------------------
 Symbolic Z-matrix:
 Charge =  0 Multiplicity = 1

                         Standard orientation:
 ---------------------------------------------------------------------
 Center     Atomic      Atomic             Coordinates (Angstroms)
 Number     Number       Type             X           Y           Z
 ---------------------------------------------------------------------
      1          6           0        0.786374    0.476768    0.001613
      2          6           0       -0.591457    0.654301   -0.001053
      3          6           0       -1.409485   -0.496011    0.000402
      4          8           0        1.297120   -0.635186   -0.001053
      5          1           0        1.427484    1.355762    0.002538
      6          1           0       -1.019923    1.658331   -0.002712
      7          1           0       -0.999280   -1.420413    0.002429
      8          1           0       -2.497830   -0.322546    0.000395
 ---------------------------------------------------------------------

 SCF Done:  E(RwB97X) =  -191.834923736     A.U. after   15 cycles

 The electronic state is 1-A.
 Alpha  occ. eigenvalues --  -19.20356 -10.34843 -10.30578 -10.29037  -1.15950
 Alpha  occ. eigenvalues --   -0.92110  -0.79510  -0.66340  -0.63272  -0.55737
 Alpha  occ. eigenvalues --   -0.51714  -0.50524  -0.49819  -0.36887  -0.35579
 Alpha virt. eigenvalues --    0.00886   0.17356   0.20050   0.23606   0.26862
 Alpha virt. eigenvalues --    0.30247   0.34889   0.40555   0.45920   0.62076
 Alpha virt. eigenvalues --    0.63685   0.68787   0.68807   0.70585   0.73811

 Mulliken charges:
               1
     1  C    0.215806
     2  C   -0.201246
     3  C   -0.297345
     4  O   -0.417324
     5  H    0.129269
     6  H    0.173371
     7  H    0.218227
     8  H    0.179242
 Sum of Mulliken charges =  -0.00000

 Dipole moment (field-independent basis, Debye):
    X=             -2.2106    Y=              1.6860    Z=              0.0054  Tot=              2.7802
 Quadrupole moment (field-independent basis, Debye-Ang):
   XX=            -23.4191   YY=            -21.7274   ZZ=            -24.3545
   XY=              2.9834   XZ=              0.0036   YZ=             -0.0066

 Normal termination of Gaussian 16 at Wed Jun  5 16:58:19 2019.
