 Gaussian 16, Revision A.03,
 Gaussian 16:  ES64L-G16RevA.03 25-Dec-2016

 ----------------
 # 6-31g(d) wb97x
 ----------------

 --------------------
 tmpdir/M2_ref_68.gjf
 --------------------
 Symbolic Z-matrix:
 Charge =  0 Multiplicity = 1

                         Standard orientation:
 ---------------------------------------------------------------------
 Center     Atomic      Atomic             Coordinates (Angstroms)
 Number     Number       Type             X           Y           Z
 ---------------------------------------------------------------------
      1          6           0       -0.795952    0.479642   -0.000786
      2          6           0        0.589309    0.650068   -0.005324
      3          6           0        1.405963   -0.481052    0.000024
      4          1           0       -1.430194    1.362247   -0.002782
      5          8           0       -1.285703   -0.643038    0.000890
      6          1           0        1.025384    1.655544    0.028013
      7          1           0        2.487804   -0.361842   -0.008698
      8          1           0        1.006714   -1.403588    0.012866
 ---------------------------------------------------------------------

 SCF Done:  E(RwB97X) =  -191.837164332     A.U. after   15 cycles

 The electronic state is 1-A.
 Alpha  occ. eigenvalues --  -19.20491 -10.35043 -10.29988 -10.28893  -1.16015
 Alpha  occ. eigenvalues --   -0.92150  -0.79554  -0.66581  -0.63181  -0.55677
 Alpha  occ. eigenvalues --   -0.52165  -0.50578  -0.49501  -0.37023  -0.35709
 Alpha virt. eigenvalues --    0.01100   0.17321   0.20278   0.23986   0.26806
 Alpha virt. eigenvalues --    0.30412   0.35118   0.40964   0.45996   0.62045
 Alpha virt. eigenvalues --    0.63568   0.68788   0.68819   0.70313   0.74383

 Mulliken charges:
               1
     1  C    0.215676
     2  C   -0.200274
     3  C   -0.297932
     4  H    0.133550
     5  O   -0.415494
     6  H    0.170247
     7  H    0.179516
     8  H    0.214710
 Sum of Mulliken charges =  -0.00000

 Dipole moment (field-independent basis, Debye):
    X=              2.1163    Y=              1.7077    Z=              0.0241  Tot=              2.7195
 Quadrupole moment (field-independent basis, Debye-Ang):
   XX=            -23.2885   YY=            -21.7668   ZZ=            -24.3050
   XY=             -3.1520   XZ=              0.0290   YZ=              0.0308

 Normal termination of Gaussian 16 at Wed Jun  5 16:58:02 2019.
