 Gaussian 16, Revision A.03,
 Gaussian 16:  ES64L-G16RevA.03 25-Dec-2016

 ----------------
 # 6-31g(d) wb97x
 ----------------

 ---------------------
 tmpdir/M2_ref_156.gjf
 ---------------------
 Symbolic Z-matrix:
 Charge =  0 Multiplicity = 1

                         Standard orientation:
 ---------------------------------------------------------------------
 Center     Atomic      Atomic             Coordinates (Angstroms)
 Number     Number       Type             X           Y           Z
 ---------------------------------------------------------------------
      1          6           0       -0.645914    0.505620   -0.003800
      2          6           0        0.744066    0.479446   -0.001196
      3          6           0       -1.460996   -0.679986    0.003885
      4          1           0       -1.182868    1.453522   -0.006393
      5          1           0        1.322800    1.395114    0.023126
      6          6           0        1.339523   -0.779853   -0.001678
 ---------------------------------------------------------------------

 SCF Done:  E(RwB97X) =  -153.239110781     A.U. after   20 cycles

 The electronic state is 1-A.
 Alpha  occ. eigenvalues --  -10.36745 -10.36462 -10.31616 -10.31152  -0.97697
 Alpha  occ. eigenvalues --   -0.83922  -0.72128  -0.60691  -0.59129  -0.46467
 Alpha  occ. eigenvalues --   -0.42567  -0.40050  -0.32821
 Alpha virt. eigenvalues --   -0.03481   0.00558   0.02085   0.16351   0.20991
 Alpha virt. eigenvalues --    0.25028   0.34026   0.45612   0.47071   0.59027
 Alpha virt. eigenvalues --    0.61050   0.63078   0.66015   0.66623   0.69323

 Mulliken charges:
               1
     1  C   -0.293633
     2  C   -0.249131
     3  C    0.040989
     4  H    0.232750
     5  H    0.234239
     6  C    0.034787
 Sum of Mulliken charges =  -0.00000

 Dipole moment (field-independent basis, Debye):
    X=              0.3901    Y=              3.3736    Z=              0.0192  Tot=              3.3962
 Quadrupole moment (field-independent basis, Debye-Ang):
   XX=            -24.1477   YY=            -23.4457   ZZ=            -25.5675
   XY=             -0.0731   XZ=              0.0906   YZ=              0.0341

 Normal termination of Gaussian 16 at Wed Jun  5 16:58:20 2019.
