 Gaussian 16, Revision A.03,
 Gaussian 16:  ES64L-G16RevA.03 25-Dec-2016

 ----------------
 # 6-31g(d) wb97x
 ----------------

 ---------------------
 tmpdir/M2_ref_190.gjf
 ---------------------
 Symbolic Z-matrix:
 Charge =  0 Multiplicity = 1

                         Standard orientation:
 ---------------------------------------------------------------------
 Center     Atomic      Atomic             Coordinates (Angstroms)
 Number     Number       Type             X           Y           Z
 ---------------------------------------------------------------------
      1          6           0       -0.733074    0.479448   -0.001203
      2          7           0        0.586926    0.680392   -0.000455
      3          6           0        1.365162   -0.400416   -0.003883
      4          8           0       -1.250831   -0.632343    0.002447
      5          1           0       -1.349571    1.377430   -0.000712
      6          1           0        1.018272   -1.350226   -0.011096
      7          1           0        2.436933   -0.205400    0.025937
 ---------------------------------------------------------------------

 SCF Done:  E(RwB97X) =  -207.876833852     A.U. after   17 cycles

 The electronic state is 1-A.
 Alpha  occ. eigenvalues --  -19.21504 -14.42964 -10.37739 -10.35439  -1.18277
 Alpha  occ. eigenvalues --   -1.05508  -0.84032  -0.69836  -0.64792  -0.57281
 Alpha  occ. eigenvalues --   -0.54746  -0.53833  -0.41768  -0.40434  -0.36731
 Alpha virt. eigenvalues --   -0.01098   0.15415   0.21900   0.24242   0.27959
 Alpha virt. eigenvalues --    0.33173   0.37811   0.46388   0.60080   0.63390
 Alpha virt. eigenvalues --    0.66711   0.68534   0.75038   0.77748   0.80363

 Mulliken charges:
               1
     1  C    0.290919
     2  N   -0.354664
     3  C   -0.105701
     4  O   -0.403991
     5  H    0.158709
     6  H    0.216543
     7  H    0.198185
 Sum of Mulliken charges =   0.00000

 Dipole moment (field-independent basis, Debye):
    X=              1.9558    Y=             -0.1182    Z=             -0.0075  Tot=              1.9594
 Quadrupole moment (field-independent basis, Debye-Ang):
   XX=            -21.5174   YY=            -23.6764   ZZ=            -22.5267
   XY=             -5.4824   XZ=              0.0355   YZ=             -0.0008

 Normal termination of Gaussian 16 at Wed Jun  5 16:58:41 2019.
