 Gaussian 16, Revision A.03,
 Gaussian 16:  ES64L-G16RevA.03 25-Dec-2016

 ----------------
 # 6-31g(d) wb97x
 ----------------

 ---------------------
 tmpdir/M2_ref_155.gjf
 ---------------------
 Symbolic Z-matrix:
 Charge =  0 Multiplicity = 1

                         Standard orientation:
 ---------------------------------------------------------------------
 Center     Atomic      Atomic             Coordinates (Angstroms)
 Number     Number       Type             X           Y           Z
 ---------------------------------------------------------------------
      1          6           0        0.569615   -0.015773   -0.000711
      2          1           0        1.058629    0.957728    0.001398
      3          8           0       -0.698737   -0.000079    0.000155
      4          1           0        1.113574   -0.862459    0.001630
 ---------------------------------------------------------------------

 SCF Done:  E(RwB97X) =  -114.453123951     A.U. after   13 cycles

 The electronic state is 1-A.
 Alpha  occ. eigenvalues --  -19.23259 -10.36534  -1.14963  -0.77937  -0.61725
 Alpha  occ. eigenvalues --   -0.54349  -0.48209  -0.37012
 Alpha virt. eigenvalues --    0.04414   0.21592   0.28943   0.31119   0.62407
 Alpha virt. eigenvalues --    0.68789   0.74145   0.75433   0.97069   0.97662
 Alpha virt. eigenvalues --    1.05922   1.07763   1.17593   1.47203   1.59219

 Mulliken charges:
               1
     1  C    0.048332
     2  H    0.148057
     3  O   -0.366019
     4  H    0.169630
 Sum of Mulliken charges =   0.00000

 Dipole moment (field-independent basis, Debye):
    X=              2.5986    Y=             -0.0900    Z=              0.0005  Tot=              2.6001
 Quadrupole moment (field-independent basis, Debye-Ang):
   XX=            -11.6748   YY=            -11.2291   ZZ=            -11.4429
   XY=             -0.1597   XZ=              0.0013   YZ=              0.0002

 Normal termination of Gaussian 16 at Wed Jun  5 16:58:11 2019.
