 Gaussian 16, Revision A.03,
 Gaussian 16:  ES64L-G16RevA.03 25-Dec-2016

 ----------------
 # 6-31g(d) wb97x
 ----------------

 ---------------------
 tmpdir/M2_ref_164.gjf
 ---------------------
 Symbolic Z-matrix:
 Charge =  0 Multiplicity = 1

                         Standard orientation:
 ---------------------------------------------------------------------
 Center     Atomic      Atomic             Coordinates (Angstroms)
 Number     Number       Type             X           Y           Z
 ---------------------------------------------------------------------
      1          1           0       -1.293593    0.898373    0.017563
      2          6           0       -0.702463   -0.009435   -0.002965
      3          6           0        0.690423    0.006904   -0.000836
      4          1           0       -1.139100   -0.916146   -0.003020
      5          1           0        1.247543   -0.886938    0.014545
      6          1           0        1.257391    0.919899   -0.006281
 ---------------------------------------------------------------------

 SCF Done:  E(RwB97X) =  -78.5462254475     A.U. after   13 cycles

 The electronic state is 1-A.
 Alpha  occ. eigenvalues --  -10.26985 -10.26649  -0.87642  -0.70900  -0.58116
 Alpha  occ. eigenvalues --   -0.51165  -0.47094  -0.35650
 Alpha virt. eigenvalues --    0.09933   0.22561   0.25412   0.27012   0.34980
 Alpha virt. eigenvalues --    0.40921   0.59916   0.66037   0.66597   0.74564
 Alpha virt. eigenvalues --    0.75748   0.77599   0.99843   1.00654   1.07020

 Mulliken charges:
               1
     1  H    0.167823
     2  C   -0.329791
     3  C   -0.337567
     4  H    0.169573
     5  H    0.166580
     6  H    0.163382
 Sum of Mulliken charges =   0.00000

 Dipole moment (field-independent basis, Debye):
    X=              0.0118    Y=             -0.0367    Z=              0.0216  Tot=              0.0442
 Quadrupole moment (field-independent basis, Debye-Ang):
   XX=            -11.8001   YY=            -11.9712   ZZ=            -15.1472
   XY=             -0.0940   XZ=             -0.0095   YZ=              0.0006

 Normal termination of Gaussian 16 at Wed Jun  5 16:58:40 2019.
