 Gaussian 16, Revision A.03,
 Gaussian 16:  ES64L-G16RevA.03 25-Dec-2016

 ----------------
 # 6-31g(d) wb97x
 ----------------

 ---------------------
 tmpdir/M2_ref_177.gjf
 ---------------------
 Symbolic Z-matrix:
 Charge =  0 Multiplicity = 1

                         Standard orientation:
 ---------------------------------------------------------------------
 Center     Atomic      Atomic             Coordinates (Angstroms)
 Number     Number       Type             X           Y           Z
 ---------------------------------------------------------------------
      1          6           0       -1.394625   -0.474979   -0.001442
      2          6           0       -0.577170    0.655726   -0.001082
      3          6           0        0.799103    0.485326    0.000070
      4          1           0       -2.464429   -0.372412    0.005027
      5          1           0       -0.944138   -1.380243    0.007673
      6          1           0       -1.009318    1.651046    0.000190
      7          1           0        1.458135    1.348593    0.006634
      8          8           0        1.249488   -0.655428   -0.000600
 ---------------------------------------------------------------------

 SCF Done:  E(RwB97X) =  -191.835256830     A.U. after   15 cycles

 The electronic state is 1-A.
 Alpha  occ. eigenvalues --  -19.20345 -10.34961 -10.29731 -10.28540  -1.16015
 Alpha  occ. eigenvalues --   -0.92127  -0.79578  -0.66497  -0.63465  -0.55543
 Alpha  occ. eigenvalues --   -0.52506  -0.50617  -0.49200  -0.36831  -0.35700
 Alpha virt. eigenvalues --    0.01086   0.17434   0.20756   0.24140   0.26942
 Alpha virt. eigenvalues --    0.30725   0.34954   0.41026   0.46385   0.62062
 Alpha virt. eigenvalues --    0.63342   0.68828   0.69018   0.70394   0.75141

 Mulliken charges:
               1
     1  C   -0.297841
     2  C   -0.202268
     3  C    0.214926
     4  H    0.182961
     5  H    0.215576
     6  H    0.167126
     7  H    0.138305
     8  O   -0.418785
 Sum of Mulliken charges =  -0.00000

 Dipole moment (field-independent basis, Debye):
    X=             -2.0023    Y=              1.7579    Z=              0.0135  Tot=              2.6645
 Quadrupole moment (field-independent basis, Debye-Ang):
   XX=            -23.0661   YY=            -21.8773   ZZ=            -24.2691
   XY=              3.1928   XZ=             -0.0129   YZ=             -0.0082

 Normal termination of Gaussian 16 at Wed Jun  5 16:58:40 2019.
