 Gaussian 16, Revision A.03,
 Gaussian 16:  ES64L-G16RevA.03 25-Dec-2016

 ----------------
 # 6-31g(d) wb97x
 ----------------

 --------------------
 tmpdir/M2_ref_23.gjf
 --------------------
 Symbolic Z-matrix:
 Charge =  0 Multiplicity = 1

                         Standard orientation:
 ---------------------------------------------------------------------
 Center     Atomic      Atomic             Coordinates (Angstroms)
 Number     Number       Type             X           Y           Z
 ---------------------------------------------------------------------
      1          6           0       -1.197055   -0.225047    0.019120
      2          7           0       -0.000651    0.572600   -0.150335
      3          6           0        1.201057   -0.228117    0.017596
      4          1           0       -1.278167   -0.667295    1.031049
      5          1           0       -1.204400   -1.041173   -0.711419
      6          1           0       -2.083266    0.394971   -0.154168
      7          1           0        0.014074    1.362341    0.491547
      8          1           0        1.180849   -1.050304   -0.707674
      9          1           0        1.251533   -0.673515    1.031624
     10          1           0        2.099921    0.385759   -0.148906
 ---------------------------------------------------------------------

 SCF Done:  E(RwB97X) =  -135.121006626     A.U. after   13 cycles

 The electronic state is 1-A.
 Alpha  occ. eigenvalues --  -14.38747 -10.28022 -10.27920  -1.02298  -0.82021
 Alpha  occ. eigenvalues --   -0.74497  -0.59668  -0.54956  -0.53434  -0.48671
 Alpha  occ. eigenvalues --   -0.46880  -0.45931  -0.31098
 Alpha virt. eigenvalues --    0.18166   0.23005   0.25222   0.25372   0.26454
 Alpha virt. eigenvalues --    0.29182   0.29656   0.31514   0.36792   0.63727
 Alpha virt. eigenvalues --    0.64334   0.68556   0.69258   0.70530   0.84189

 Mulliken charges:
               1
     1  C   -0.324507
     2  N   -0.550207
     3  C   -0.323842
     4  H    0.123582
     5  H    0.160240
     6  H    0.162867
     7  H    0.306103
     8  H    0.159734
     9  H    0.123711
    10  H    0.162320
 Sum of Mulliken charges =   0.00000

 Dipole moment (field-independent basis, Debye):
    X=              0.0066    Y=             -0.1698    Z=              1.0237  Tot=              1.0377
 Quadrupole moment (field-independent basis, Debye-Ang):
   XX=            -19.5476   YY=            -20.0027   ZZ=            -21.6197
   XY=              0.0718   XZ=              0.0168   YZ=              2.1046

 Normal termination of Gaussian 16 at Wed Jun  5 16:57:37 2019.
