 Gaussian 16, Revision A.03,
 Gaussian 16:  ES64L-G16RevA.03 25-Dec-2016

 ----------------
 # 6-31g(d) wb97x
 ----------------

 ---------------------
 tmpdir/M2_ref_184.gjf
 ---------------------
 Symbolic Z-matrix:
 Charge =  0 Multiplicity = 1

                         Standard orientation:
 ---------------------------------------------------------------------
 Center     Atomic      Atomic             Coordinates (Angstroms)
 Number     Number       Type             X           Y           Z
 ---------------------------------------------------------------------
      1          6           0        0.542243   -0.007972   -0.000615
      2          1           0        1.102863    0.925914    0.001217
      3          8           0       -0.684168    0.000998    0.000146
      4          1           0        1.117020   -0.886067    0.001306
 ---------------------------------------------------------------------

 SCF Done:  E(RwB97X) =  -114.463474352     A.U. after   14 cycles

 The electronic state is 1-A.
 Alpha  occ. eigenvalues --  -19.23380 -10.36541  -1.17221  -0.77055  -0.61261
 Alpha  occ. eigenvalues --   -0.55374  -0.49688  -0.37003
 Alpha virt. eigenvalues --    0.05463   0.21332   0.29145   0.31495   0.62010
 Alpha virt. eigenvalues --    0.71797   0.73178   0.79041   0.95704   0.96320
 Alpha virt. eigenvalues --    1.03432   1.07727   1.17473   1.48320   1.60880

 Mulliken charges:
               1
     1  C    0.057547
     2  H    0.137116
     3  O   -0.344846
     4  H    0.150183
 Sum of Mulliken charges =   0.00000

 Dipole moment (field-independent basis, Debye):
    X=              2.4368    Y=             -0.0591    Z=              0.0002  Tot=              2.4375
 Quadrupole moment (field-independent basis, Debye-Ang):
   XX=            -11.7266   YY=            -11.3949   ZZ=            -11.3856
   XY=             -0.0791   XZ=              0.0011   YZ=              0.0001

 Normal termination of Gaussian 16 at Wed Jun  5 16:58:50 2019.
