 Gaussian 16, Revision A.03,
 Gaussian 16:  ES64L-G16RevA.03 25-Dec-2016

 ----------------
 # 6-31g(d) wb97x
 ----------------

 -------------------
 tmpdir/M2_ref_9.gjf
 -------------------
 Symbolic Z-matrix:
 Charge =  0 Multiplicity = 1

                         Standard orientation:
 ---------------------------------------------------------------------
 Center     Atomic      Atomic             Coordinates (Angstroms)
 Number     Number       Type             X           Y           Z
 ---------------------------------------------------------------------
      1          6           0        1.239691   -0.239961   -0.034712
      2          6           0       -0.050241    0.561301    0.064834
      3          7           0       -1.201297   -0.312195   -0.116724
      4          1           0        2.095851    0.423032    0.138270
      5          1           0        1.330186   -0.648478   -1.061168
      6          1           0        1.255405   -1.072204    0.747946
      7          1           0       -0.081424    1.072443    1.046250
      8          1           0       -0.064423    1.330220   -0.716733
      9          1           0       -1.188248   -1.054535    0.583789
     10          1           0       -2.074969    0.206845   -0.102014
 ---------------------------------------------------------------------

 SCF Done:  E(RwB97X) =  -135.127336737     A.U. after   13 cycles

 The electronic state is 1-A.
 Alpha  occ. eigenvalues --  -14.37874 -10.28461 -10.25909  -0.99969  -0.84922
 Alpha  occ. eigenvalues --   -0.71441  -0.59993  -0.56543  -0.52599  -0.46319
 Alpha  occ. eigenvalues --   -0.45943  -0.44405  -0.32221
 Alpha virt. eigenvalues --    0.18087   0.22327   0.23406   0.26177   0.27043
 Alpha virt. eigenvalues --    0.28880   0.29869   0.33552   0.35927   0.63534
 Alpha virt. eigenvalues --    0.66464   0.68109   0.69273   0.78719   0.79174

 Mulliken charges:
               1
     1  C   -0.461921
     2  C   -0.141930
     3  N   -0.742230
     4  H    0.154647
     5  H    0.169735
     6  H    0.136678
     7  H    0.120969
     8  H    0.152180
     9  H    0.301912
    10  H    0.309961
 Sum of Mulliken charges =   0.00000

 Dipole moment (field-independent basis, Debye):
    X=             -0.2395    Y=              0.5442    Z=              1.1185  Tot=              1.2667
 Quadrupole moment (field-independent basis, Debye-Ang):
   XX=            -19.0280   YY=            -20.3017   ZZ=            -21.1993
   XY=             -0.5984   XZ=             -1.5917   YZ=             -1.8211

 Normal termination of Gaussian 16 at Wed Jun  5 16:57:34 2019.
