 Gaussian 16, Revision A.03,
 Gaussian 16:  ES64L-G16RevA.03 25-Dec-2016

 ----------------
 # 6-31g(d) wb97x
 ----------------

 --------------------
 tmpdir/M2_ref_95.gjf
 --------------------
 Symbolic Z-matrix:
 Charge =  0 Multiplicity = 1

                         Standard orientation:
 ---------------------------------------------------------------------
 Center     Atomic      Atomic             Coordinates (Angstroms)
 Number     Number       Type             X           Y           Z
 ---------------------------------------------------------------------
      1          6           0       -0.756324    0.504157   -0.088621
      2          6           0        0.736508    0.491866    0.082416
      3          8           0        1.380977   -0.534342   -0.073142
      4          1           0       -1.282258    1.327641   -0.349394
      5          8           0       -1.351938   -0.558380    0.076472
      6          1           0        1.168838    1.437995    0.359988
 ---------------------------------------------------------------------

 SCF Done:  E(RwB97X) =  -227.740803313     A.U. after   16 cycles

 The electronic state is 1-A.
 Alpha  occ. eigenvalues --  -19.25441 -19.24998 -10.38713 -10.37832  -1.20898
 Alpha  occ. eigenvalues --   -1.17730  -0.85437  -0.71411  -0.65934  -0.57694
 Alpha  occ. eigenvalues --   -0.56638  -0.54051  -0.48604  -0.42005  -0.36890
 Alpha virt. eigenvalues --   -0.01787   0.11281   0.22104   0.23722   0.28873
 Alpha virt. eigenvalues --    0.39215   0.42808   0.60140   0.63730   0.66993
 Alpha virt. eigenvalues --    0.72497   0.75885   0.76956   0.84417   0.94329

 Mulliken charges:
               1
     1  C    0.166081
     2  C    0.183918
     3  O   -0.335006
     4  H    0.170919
     5  O   -0.337145
     6  H    0.151233
 Sum of Mulliken charges =  -0.00000

 Dipole moment (field-independent basis, Debye):
    X=             -0.1605    Y=              3.7466    Z=             -0.0444  Tot=              3.7503
 Quadrupole moment (field-independent basis, Debye-Ang):
   XX=            -25.6956   YY=            -21.0263   ZZ=            -20.7993
   XY=             -0.3177   XZ=              0.7278   YZ=             -0.0226

 Normal termination of Gaussian 16 at Wed Jun  5 16:57:40 2019.
