 Gaussian 16, Revision A.03,
 Gaussian 16:  ES64L-G16RevA.03 25-Dec-2016

 ----------------
 # 6-31g(d) wb97x
 ----------------

 --------------------
 tmpdir/M2_ref_64.gjf
 --------------------
 Symbolic Z-matrix:
 Charge =  0 Multiplicity = 1

                         Standard orientation:
 ---------------------------------------------------------------------
 Center     Atomic      Atomic             Coordinates (Angstroms)
 Number     Number       Type             X           Y           Z
 ---------------------------------------------------------------------
      1          6           0        0.703675    0.486278   -0.005866
      2          6           0       -0.692026    0.483932   -0.000878
      3          1           0        1.257682    1.431949    0.026334
      4          6           0        1.378160   -0.734958    0.000505
      5          1           0       -1.215355    1.436495   -0.003673
      6          6           0       -1.396864   -0.713326    0.002463
 ---------------------------------------------------------------------

 SCF Done:  E(RwB97X) =  -153.247301641     A.U. after   18 cycles

 The electronic state is 1-A.
 Alpha  occ. eigenvalues --  -10.36277 -10.36105 -10.31321 -10.31126  -0.98047
 Alpha  occ. eigenvalues --   -0.84478  -0.72407  -0.60139  -0.59479  -0.46760
 Alpha  occ. eigenvalues --   -0.42521  -0.40060  -0.33266
 Alpha virt. eigenvalues --   -0.03432   0.00587   0.02644   0.16824   0.20824
 Alpha virt. eigenvalues --    0.25048   0.35332   0.45726   0.48020   0.58313
 Alpha virt. eigenvalues --    0.60898   0.63482   0.65972   0.66647   0.69178

 Mulliken charges:
               1
     1  C   -0.266715
     2  C   -0.270913
     3  H    0.234895
     4  C    0.034019
     5  H    0.235974
     6  C    0.032741
 Sum of Mulliken charges =  -0.00000

 Dipole moment (field-independent basis, Debye):
    X=              0.0879    Y=              3.4968    Z=              0.0240  Tot=              3.4980
 Quadrupole moment (field-independent basis, Debye-Ang):
   XX=            -24.1498   YY=            -23.4072   ZZ=            -25.4676
   XY=             -0.0196   XZ=              0.0800   YZ=              0.0566

 Normal termination of Gaussian 16 at Wed Jun  5 16:57:57 2019.
