 Gaussian 16, Revision A.03,
 Gaussian 16:  ES64L-G16RevA.03 25-Dec-2016

 ----------------
 # 6-31g(d) wb97x
 ----------------

 ---------------------
 tmpdir/M2_ref_147.gjf
 ---------------------
 Symbolic Z-matrix:
 Charge =  0 Multiplicity = 1

                         Standard orientation:
 ---------------------------------------------------------------------
 Center     Atomic      Atomic             Coordinates (Angstroms)
 Number     Number       Type             X           Y           Z
 ---------------------------------------------------------------------
      1          6           0       -0.599345    0.508282    0.002577
      2          7           0        0.747995    0.531383   -0.003721
      3          1           0       -1.036594    1.495459    0.005510
      4          8           0       -1.336881   -0.530217   -0.001350
      5          8           0        1.261468   -0.502886    0.001984
 ---------------------------------------------------------------------

 SCF Done:  E(RwB97X) =  -243.694360782     A.U. after   24 cycles

 The electronic state is 1-A.
 Alpha  occ. eigenvalues --  -19.32262 -19.27520 -14.54716 -10.41102  -1.37495
 Alpha  occ. eigenvalues --   -1.18623  -0.96619  -0.72379  -0.68036  -0.63998
 Alpha  occ. eigenvalues --   -0.62100  -0.55269  -0.50260  -0.42784  -0.35600
 Alpha virt. eigenvalues --   -0.07214   0.10642   0.22167   0.29219   0.37218
 Alpha virt. eigenvalues --    0.49394   0.59825   0.64692   0.67673   0.77357
 Alpha virt. eigenvalues --    0.78640   0.79745   0.83605   0.90265   0.94880

 Mulliken charges:
               1
     1  C    0.287958
     2  N    0.041666
     3  H    0.186644
     4  O   -0.333433
     5  O   -0.182835
 Sum of Mulliken charges =  -0.00000

 Dipole moment (field-independent basis, Debye):
    X=             -0.3158    Y=              1.9025    Z=              0.0153  Tot=              1.9286
 Quadrupole moment (field-independent basis, Debye-Ang):
   XX=            -25.0009   YY=            -21.7115   ZZ=            -19.6798
   XY=             -2.6486   XZ=              0.0111   YZ=              0.0277

 Normal termination of Gaussian 16 at Wed Jun  5 16:58:23 2019.
