 Gaussian 16, Revision A.03,
 Gaussian 16:  ES64L-G16RevA.03 25-Dec-2016

 ----------------
 # 6-31g(d) wb97x
 ----------------

 --------------------
 tmpdir/M2_ref_79.gjf
 --------------------
 Symbolic Z-matrix:
 Charge =  0 Multiplicity = 1

                         Standard orientation:
 ---------------------------------------------------------------------
 Center     Atomic      Atomic             Coordinates (Angstroms)
 Number     Number       Type             X           Y           Z
 ---------------------------------------------------------------------
      1          6           0        0.549125   -0.014925   -0.000149
      2          1           0        1.102393    0.922392    0.000300
      3          8           0       -0.680650    0.006855    0.000034
      4          1           0        1.048053   -0.887684    0.000329
 ---------------------------------------------------------------------

 SCF Done:  E(RwB97X) =  -114.458101036     A.U. after   13 cycles

 The electronic state is 1-A.
 Alpha  occ. eigenvalues --  -19.23066 -10.35977  -1.16895  -0.77425  -0.62079
 Alpha  occ. eigenvalues --   -0.54976  -0.49418  -0.36910
 Alpha virt. eigenvalues --    0.05469   0.21835   0.29695   0.31589   0.62176
 Alpha virt. eigenvalues --    0.70694   0.74177   0.78269   0.96379   0.97668
 Alpha virt. eigenvalues --    1.06255   1.07882   1.17781   1.48268   1.60792

 Mulliken charges:
               1
     1  C    0.055277
     2  H    0.138268
     3  O   -0.351443
     4  H    0.157897
 Sum of Mulliken charges =   0.00000

 Dipole moment (field-independent basis, Debye):
    X=              2.4625    Y=             -0.1097    Z=              0.0001  Tot=              2.4650
 Quadrupole moment (field-independent basis, Debye-Ang):
   XX=            -11.7534   YY=            -11.2596   ZZ=            -11.3471
   XY=             -0.0696   XZ=              0.0003   YZ=              0.0000

 Normal termination of Gaussian 16 at Wed Jun  5 16:57:59 2019.
