 Gaussian 16, Revision A.03,
 Gaussian 16:  ES64L-G16RevA.03 25-Dec-2016

 ----------------
 # 6-31g(d) wb97x
 ----------------

 ---------------------
 tmpdir/M2_ref_121.gjf
 ---------------------
 Symbolic Z-matrix:
 Charge =  0 Multiplicity = 1

                         Standard orientation:
 ---------------------------------------------------------------------
 Center     Atomic      Atomic             Coordinates (Angstroms)
 Number     Number       Type             X           Y           Z
 ---------------------------------------------------------------------
      1          6           0       -1.425862   -0.461909   -0.000419
      2          6           0       -0.573802    0.633728   -0.001924
      3          6           0        0.808160    0.491907    0.001440
      4          1           0       -1.033540   -1.390755    0.001004
      5          1           0       -2.504314   -0.318064    0.007271
      6          1           0       -0.997231    1.635905   -0.002179
      7          1           0        1.454596    1.371552    0.004296
      8          8           0        1.278689   -0.660124   -0.000622
 ---------------------------------------------------------------------

 SCF Done:  E(RwB97X) =  -191.835789102     A.U. after   15 cycles

 The electronic state is 1-A.
 Alpha  occ. eigenvalues --  -19.20535 -10.35327 -10.29920 -10.28688  -1.15097
 Alpha  occ. eigenvalues --   -0.92189  -0.79787  -0.66638  -0.63160  -0.55420
 Alpha  occ. eigenvalues --   -0.52726  -0.50158  -0.48901  -0.36940  -0.35752
 Alpha virt. eigenvalues --    0.00831   0.17238   0.20221   0.23892   0.26789
 Alpha virt. eigenvalues --    0.30412   0.34580   0.41187   0.46553   0.61996
 Alpha virt. eigenvalues --    0.63134   0.68026   0.68787   0.70641   0.74461

 Mulliken charges:
               1
     1  C   -0.297967
     2  C   -0.190251
     3  C    0.209003
     4  H    0.212411
     5  H    0.182303
     6  H    0.163174
     7  H    0.144402
     8  O   -0.423076
 Sum of Mulliken charges =  -0.00000

 Dipole moment (field-independent basis, Debye):
    X=             -2.0687    Y=              1.8044    Z=              0.0099  Tot=              2.7450
 Quadrupole moment (field-independent basis, Debye-Ang):
   XX=            -23.0686   YY=            -21.8792   ZZ=            -24.3200
   XY=              3.3670   XZ=             -0.0116   YZ=             -0.0030

 Normal termination of Gaussian 16 at Wed Jun  5 16:58:06 2019.
