 Gaussian 16, Revision A.03,
 Gaussian 16:  ES64L-G16RevA.03 25-Dec-2016

 ----------------
 # 6-31g(d) wb97x
 ----------------

 ---------------------
 tmpdir/M2_ref_175.gjf
 ---------------------
 Symbolic Z-matrix:
 Charge =  0 Multiplicity = 1

                         Standard orientation:
 ---------------------------------------------------------------------
 Center     Atomic      Atomic             Coordinates (Angstroms)
 Number     Number       Type             X           Y           Z
 ---------------------------------------------------------------------
      1          6           0       -0.690778    0.493410   -0.000791
      2          6           0        0.696001    0.490523   -0.000480
      3          6           0       -1.365648   -0.727768    0.000729
      4          1           0       -1.240002    1.429235   -0.000308
      5          1           0        1.245921    1.427091    0.004623
      6          6           0        1.359439   -0.732219   -0.000177
 ---------------------------------------------------------------------

 SCF Done:  E(RwB97X) =  -153.245007880     A.U. after   16 cycles

 The electronic state is 1-A.
 Alpha  occ. eigenvalues --  -10.36178 -10.36129 -10.31122 -10.31059  -0.98335
 Alpha  occ. eigenvalues --   -0.84315  -0.72515  -0.60328  -0.59596  -0.46902
 Alpha  occ. eigenvalues --   -0.42615  -0.39934  -0.33105
 Alpha virt. eigenvalues --   -0.03633   0.01004   0.02561   0.16889   0.21031
 Alpha virt. eigenvalues --    0.25165   0.35123   0.45855   0.48198   0.58402
 Alpha virt. eigenvalues --    0.60922   0.64057   0.66235   0.66444   0.69240

 Mulliken charges:
               1
     1  C   -0.268489
     2  C   -0.265933
     3  C    0.031900
     4  H    0.235639
     5  H    0.235844
     6  C    0.031038
 Sum of Mulliken charges =   0.00000

 Dipole moment (field-independent basis, Debye):
    X=              0.0162    Y=              3.5179    Z=              0.0046  Tot=              3.5179
 Quadrupole moment (field-independent basis, Debye-Ang):
   XX=            -23.8436   YY=            -23.5451   ZZ=            -25.4338
   XY=             -0.0018   XZ=              0.0153   YZ=              0.0107

 Normal termination of Gaussian 16 at Wed Jun  5 16:58:27 2019.
