 Gaussian 16, Revision A.03,
 Gaussian 16:  ES64L-G16RevA.03 25-Dec-2016

 ----------------
 # 6-31g(d) wb97x
 ----------------

 -------------------
 tmpdir/M2_ref_4.gjf
 -------------------
 Symbolic Z-matrix:
 Charge =  0 Multiplicity = 1

                         Standard orientation:
 ---------------------------------------------------------------------
 Center     Atomic      Atomic             Coordinates (Angstroms)
 Number     Number       Type             X           Y           Z
 ---------------------------------------------------------------------
      1          1           0        0.619736   -0.531971   -0.748203
      2          6           0        0.000962    0.001871   -0.001511
      3          1           0        0.154952   -0.480323    0.971145
      4          1           0        0.331015    1.051488    0.052341
      5          1           0       -1.111473   -0.050418   -0.266215
 ---------------------------------------------------------------------

 SCF Done:  E(RwB97X) =  -40.4976189595     A.U. after   11 cycles

 The electronic state is 1-A.
 Alpha  occ. eigenvalues --  -10.25722  -0.81226  -0.49474  -0.49241  -0.48739
 Alpha virt. eigenvalues --    0.21075   0.26368   0.27103   0.27407   0.64009
 Alpha virt. eigenvalues --    0.64253   0.65636   0.98655   1.00771   1.01374
 Alpha virt. eigenvalues --    1.04981   1.20190   1.76021   1.76278   2.29702

 Mulliken charges:
               1
     1  H    0.165936
     2  C   -0.658546
     3  H    0.167866
     4  H    0.167563
     5  H    0.157181
 Sum of Mulliken charges =  -0.00000

 Dipole moment (field-independent basis, Debye):
    X=              0.0382    Y=             -0.0048    Z=              0.0258  Tot=              0.0463
 Quadrupole moment (field-independent basis, Debye-Ang):
   XX=             -8.2167   YY=             -8.3065   ZZ=             -8.3817
   XY=             -0.0006   XZ=             -0.0182   YZ=             -0.0080

 Normal termination of Gaussian 16 at Wed Jun  5 16:57:24 2019.
