 Gaussian 16, Revision A.03,
 Gaussian 16:  ES64L-G16RevA.03 25-Dec-2016

 ----------------
 # 6-31g(d) wb97x
 ----------------

 --------------------
 tmpdir/M2_ref_52.gjf
 --------------------
 Symbolic Z-matrix:
 Charge =  0 Multiplicity = 1

                         Standard orientation:
 ---------------------------------------------------------------------
 Center     Atomic      Atomic             Coordinates (Angstroms)
 Number     Number       Type             X           Y           Z
 ---------------------------------------------------------------------
      1          6           0        1.192344   -0.235327    0.018689
      2          7           0        0.000445    0.583295   -0.154870
      3          6           0       -1.193480   -0.235172    0.018191
      4          1           0        1.254720   -0.646201    1.044704
      5          1           0        2.077155    0.390279   -0.148677
      6          1           0        1.190276   -1.069061   -0.701322
      7          1           0        0.001313    1.387638    0.466381
      8          1           0       -1.192829   -1.069616   -0.700297
      9          1           0       -2.078672    0.389381   -0.144314
     10          1           0       -1.248262   -0.642493    1.046339
 ---------------------------------------------------------------------

 SCF Done:  E(RwB97X) =  -135.119861855     A.U. after   13 cycles

 The electronic state is 1-A.
 Alpha  occ. eigenvalues --  -14.38688 -10.28000 -10.27989  -1.02036  -0.81817
 Alpha  occ. eigenvalues --   -0.74517  -0.59568  -0.54883  -0.53200  -0.48711
 Alpha  occ. eigenvalues --   -0.47339  -0.45468  -0.30976
 Alpha virt. eigenvalues --    0.18116   0.22711   0.25304   0.25530   0.26354
 Alpha virt. eigenvalues --    0.29334   0.29653   0.31500   0.36378   0.64078
 Alpha virt. eigenvalues --    0.64090   0.68541   0.69489   0.70525   0.84161

 Mulliken charges:
               1
     1  C   -0.322721
     2  N   -0.555054
     3  C   -0.322771
     4  H    0.124261
     5  H    0.161442
     6  H    0.160100
     7  H    0.308045
     8  H    0.160523
     9  H    0.161818
    10  H    0.124356
 Sum of Mulliken charges =   0.00000

 Dipole moment (field-independent basis, Debye):
    X=             -0.0055    Y=             -0.1540    Z=              1.0317  Tot=              1.0431
 Quadrupole moment (field-independent basis, Debye-Ang):
   XX=            -19.6661   YY=            -19.8480   ZZ=            -21.6600
   XY=              0.0006   XZ=              0.0053   YZ=              2.1693

 Normal termination of Gaussian 16 at Wed Jun  5 16:57:23 2019.
