 Gaussian 16, Revision A.03,
 Gaussian 16:  ES64L-G16RevA.03 25-Dec-2016

 ----------------
 # 6-31g(d) wb97x
 ----------------

 ---------------------
 tmpdir/M2_ref_111.gjf
 ---------------------
 Symbolic Z-matrix:
 Charge =  0 Multiplicity = 1

                         Standard orientation:
 ---------------------------------------------------------------------
 Center     Atomic      Atomic             Coordinates (Angstroms)
 Number     Number       Type             X           Y           Z
 ---------------------------------------------------------------------
      1          6           0       -1.419898   -0.470459   -0.005265
      2          6           0       -0.593082    0.652595   -0.000071
      3          6           0        0.794185    0.487238   -0.000785
      4          1           0       -2.528403   -0.390257    0.020319
      5          1           0       -1.023109   -1.397393   -0.000114
      6          1           0       -1.014828    1.644163    0.004783
      7          8           0        1.297466   -0.650865    0.001766
      8          1           0        1.499379    1.334165   -0.002388
 ---------------------------------------------------------------------

 SCF Done:  E(RwB97X) =  -191.836320786     A.U. after   14 cycles

 The electronic state is 1-A.
 Alpha  occ. eigenvalues --  -19.20368 -10.35386 -10.30446 -10.29109  -1.14917
 Alpha  occ. eigenvalues --   -0.92237  -0.79387  -0.66709  -0.63051  -0.55490
 Alpha  occ. eigenvalues --   -0.52274  -0.50000  -0.49197  -0.37036  -0.35557
 Alpha virt. eigenvalues --    0.00835   0.16999   0.19999   0.23867   0.26331
 Alpha virt. eigenvalues --    0.29938   0.34821   0.41361   0.45866   0.62048
 Alpha virt. eigenvalues --    0.62812   0.68471   0.68786   0.70436   0.74292

 Mulliken charges:
               1
     1  C   -0.299029
     2  C   -0.191560
     3  C    0.203977
     4  H    0.179959
     5  H    0.214998
     6  H    0.172494
     7  O   -0.421669
     8  H    0.140830
 Sum of Mulliken charges =  -0.00000

 Dipole moment (field-independent basis, Debye):
    X=             -2.1839    Y=              1.7429    Z=              0.0138  Tot=              2.7942
 Quadrupole moment (field-independent basis, Debye-Ang):
   XX=            -23.1158   YY=            -21.8507   ZZ=            -24.3755
   XY=              3.3674   XZ=             -0.0542   YZ=              0.0012

 Normal termination of Gaussian 16 at Wed Jun  5 16:57:54 2019.
