 Gaussian 16, Revision A.03,
 Gaussian 16:  ES64L-G16RevA.03 25-Dec-2016

 ----------------
 # 6-31g(d) wb97x
 ----------------

 --------------------
 tmpdir/M2_ref_65.gjf
 --------------------
 Symbolic Z-matrix:
 Charge =  0 Multiplicity = 1

                         Standard orientation:
 ---------------------------------------------------------------------
 Center     Atomic      Atomic             Coordinates (Angstroms)
 Number     Number       Type             X           Y           Z
 ---------------------------------------------------------------------
      1          6           0       -0.697789   -0.009936   -0.005524
      2          6           0        0.697325   -0.007588    0.000478
      3          1           0       -1.259325    0.931339    0.025032
      4          1           0       -1.183274   -0.895969   -0.000099
      5          1           0        1.232367    0.940187   -0.010526
      6          1           0        1.213020   -0.870409    0.015870
 ---------------------------------------------------------------------

 SCF Done:  E(RwB97X) =  -78.5425380188     A.U. after   12 cycles

 The electronic state is 1-A.
 Alpha  occ. eigenvalues --  -10.26777 -10.26623  -0.87690  -0.70983  -0.58434
 Alpha  occ. eigenvalues --   -0.50853  -0.47353  -0.35599
 Alpha virt. eigenvalues --    0.09902   0.22160   0.26281   0.26953   0.35005
 Alpha virt. eigenvalues --    0.40745   0.59777   0.66255   0.66645   0.74591
 Alpha virt. eigenvalues --    0.75646   0.77549   0.99655   1.00150   1.08351

 Mulliken charges:
               1
     1  C   -0.333514
     2  C   -0.332833
     3  H    0.163209
     4  H    0.170007
     5  H    0.161497
     6  H    0.171635
 Sum of Mulliken charges =  -0.00000

 Dipole moment (field-independent basis, Debye):
    X=              0.0050    Y=             -0.0475    Z=              0.0292  Tot=              0.0559
 Quadrupole moment (field-independent basis, Debye-Ang):
   XX=            -11.8977   YY=            -11.8891   ZZ=            -15.1327
   XY=             -0.0544   XZ=             -0.0250   YZ=             -0.0006

 Normal termination of Gaussian 16 at Wed Jun  5 16:57:28 2019.
