 Gaussian 16, Revision A.03,
 Gaussian 16:  ES64L-G16RevA.03 25-Dec-2016

 ----------------
 # 6-31g(d) wb97x
 ----------------

 ---------------------
 tmpdir/M2_ref_117.gjf
 ---------------------
 Symbolic Z-matrix:
 Charge =  0 Multiplicity = 1

                         Standard orientation:
 ---------------------------------------------------------------------
 Center     Atomic      Atomic             Coordinates (Angstroms)
 Number     Number       Type             X           Y           Z
 ---------------------------------------------------------------------
      1          1           0       -1.244717    0.928832    0.004782
      2          6           0       -0.695430   -0.010349   -0.001040
      3          6           0        0.692527   -0.009215   -0.000355
      4          1           0       -1.187088   -0.890658    0.000545
      5          1           0        1.222917    0.940700   -0.000786
      6          1           0        1.226309   -0.861489    0.003831
 ---------------------------------------------------------------------

 SCF Done:  E(RwB97X) =  -78.5434094840     A.U. after   12 cycles

 The electronic state is 1-A.
 Alpha  occ. eigenvalues --  -10.26588 -10.26507  -0.87836  -0.71045  -0.58508
 Alpha  occ. eigenvalues --   -0.51064  -0.47248  -0.35720
 Alpha virt. eigenvalues --    0.10060   0.22262   0.26358   0.27097   0.35078
 Alpha virt. eigenvalues --    0.41045   0.59674   0.66101   0.66572   0.74675
 Alpha virt. eigenvalues --    0.75697   0.77992   0.99852   1.00361   1.08643

 Mulliken charges:
               1
     1  H    0.163709
     2  C   -0.332560
     3  C   -0.332655
     4  H    0.169981
     5  H    0.159905
     6  H    0.171620
 Sum of Mulliken charges =   0.00000

 Dipole moment (field-independent basis, Debye):
    X=              0.0057    Y=             -0.0427    Z=              0.0081  Tot=              0.0438
 Quadrupole moment (field-independent basis, Debye-Ang):
   XX=            -11.8765   YY=            -11.9054   ZZ=            -15.1007
   XY=             -0.0664   XZ=             -0.0028   YZ=             -0.0001

 Normal termination of Gaussian 16 at Wed Jun  5 16:58:02 2019.
