 Gaussian 16, Revision A.03,
 Gaussian 16:  ES64L-G16RevA.03 25-Dec-2016

 ----------------
 # 6-31g(d) wb97x
 ----------------

 --------------------
 tmpdir/M2_ref_63.gjf
 --------------------
 Symbolic Z-matrix:
 Charge =  0 Multiplicity = 1

                         Standard orientation:
 ---------------------------------------------------------------------
 Center     Atomic      Atomic             Coordinates (Angstroms)
 Number     Number       Type             X           Y           Z
 ---------------------------------------------------------------------
      1          1           0        1.521677   -0.187069    1.031685
      2          6           0        1.163891   -0.143241   -0.005975
      3          6           0       -0.233470    0.441320   -0.005198
      4          1           0        1.909239    0.482849   -0.601054
      5          1           0        1.123829   -1.190125   -0.366572
      6          1           0       -0.369776    1.441707    0.032559
      7          8           0       -1.220937   -0.291979   -0.003697
 ---------------------------------------------------------------------

 SCF Done:  E(RwB97X) =  -153.775850817     A.U. after   15 cycles

 The electronic state is 1-A.
 Alpha  occ. eigenvalues --  -19.21325 -10.35795 -10.28502  -1.15958  -0.87516
 Alpha  occ. eigenvalues --   -0.72122  -0.58810  -0.54825  -0.53632  -0.50059
 Alpha  occ. eigenvalues --   -0.45762  -0.35625
 Alpha virt. eigenvalues --    0.06998   0.20331   0.23399   0.25406   0.26208
 Alpha virt. eigenvalues --    0.34928   0.37678   0.63298   0.64050   0.70116
 Alpha virt. eigenvalues --    0.70913   0.76791   0.82549   0.85514   0.95028

 Mulliken charges:
               1
     1  H    0.195250
     2  C   -0.562333
     3  C    0.240532
     4  H    0.167316
     5  H    0.201433
     6  H    0.149438
     7  O   -0.391637
 Sum of Mulliken charges =  -0.00000

 Dipole moment (field-independent basis, Debye):
    X=              2.3924    Y=              1.3064    Z=              0.1242  Tot=              2.7286
 Quadrupole moment (field-independent basis, Debye-Ang):
   XX=            -20.7062   YY=            -17.3096   ZZ=            -17.6178
   XY=             -1.1393   XZ=              0.1221   YZ=             -0.0455

 Normal termination of Gaussian 16 at Wed Jun  5 16:57:47 2019.
