 Gaussian 16, Revision A.03,
 Gaussian 16:  ES64L-G16RevA.03 25-Dec-2016

 ----------------
 # 6-31g(d) wb97x
 ----------------

 --------------------
 tmpdir/M2_ref_60.gjf
 --------------------
 Symbolic Z-matrix:
 Charge =  0 Multiplicity = 1

                         Standard orientation:
 ---------------------------------------------------------------------
 Center     Atomic      Atomic             Coordinates (Angstroms)
 Number     Number       Type             X           Y           Z
 ---------------------------------------------------------------------
      1          7           0       -1.690644   -0.296563   -0.068645
      2          6           0       -0.490751    0.500050    0.111719
      3          6           0        0.764376   -0.338836    0.235247
      4          1           0       -2.536246    0.253390    0.080708
      5          1           0       -1.720148   -0.736419   -0.989304
      6          1           0       -0.359784    1.239089   -0.703309
      7          1           0       -0.613090    1.078858    1.037292
      8          1           0        0.743856   -1.221356    0.726690
      9          8           0        1.834772    0.061886   -0.219170
 ---------------------------------------------------------------------

 SCF Done:  E(RwB97X) =  -209.103771095     A.U. after   16 cycles

 The electronic state is 1-A.
 Alpha  occ. eigenvalues --  -19.21388 -14.40364 -10.35220 -10.30667  -1.15987
 Alpha  occ. eigenvalues --   -1.02183  -0.83385  -0.71814  -0.62766  -0.58458
 Alpha  occ. eigenvalues --   -0.55081  -0.53528  -0.51279  -0.46117  -0.35958
 Alpha  occ. eigenvalues --   -0.34435
 Alpha virt. eigenvalues --    0.06515   0.17744   0.22615   0.24654   0.25719
 Alpha virt. eigenvalues --    0.28225   0.32513   0.36290   0.40708   0.63815
 Alpha virt. eigenvalues --    0.66882   0.67697   0.74336   0.76137   0.78027

 Mulliken charges:
               1
     1  N   -0.758131
     2  C   -0.241199
     3  C    0.239171
     4  H    0.322627
     5  H    0.318368
     6  H    0.168149
     7  H    0.187602
     8  H    0.159222
     9  O   -0.395810
 Sum of Mulliken charges =  -0.00000

 Dipole moment (field-independent basis, Debye):
    X=             -2.8143    Y=              0.3561    Z=             -0.0306  Tot=              2.8369
 Quadrupole moment (field-independent basis, Debye-Ang):
   XX=            -27.3591   YY=            -23.5867   ZZ=            -22.5575
   XY=             -2.9502   XZ=              3.1145   YZ=              1.5546

 Normal termination of Gaussian 16 at Wed Jun  5 16:57:30 2019.
