 Gaussian 16, Revision A.03,
 Gaussian 16:  ES64L-G16RevA.03 25-Dec-2016

 ----------------
 # 6-31g(d) wb97x
 ----------------

 --------------------
 tmpdir/M2_ref_53.gjf
 --------------------
 Symbolic Z-matrix:
 Charge =  0 Multiplicity = 1

                         Standard orientation:
 ---------------------------------------------------------------------
 Center     Atomic      Atomic             Coordinates (Angstroms)
 Number     Number       Type             X           Y           Z
 ---------------------------------------------------------------------
      1          6           0       -1.202404   -0.229474    0.016350
      2          7           0        0.000545    0.574736   -0.148115
      3          6           0        1.205386   -0.217393    0.018482
      4          1           0       -1.263573   -0.662082    1.033466
      5          1           0       -1.173589   -1.057800   -0.701515
      6          1           0       -2.098952    0.384026   -0.166273
      7          1           0       -0.022961    1.370117    0.491240
      8          1           0        1.351557   -0.529639    1.071448
      9          1           0        1.078231   -1.140617   -0.563033
     10          1           0        2.107578    0.294046   -0.337515
 ---------------------------------------------------------------------

 SCF Done:  E(RwB97X) =  -135.119581488     A.U. after   13 cycles

 The electronic state is 1-A.
 Alpha  occ. eigenvalues --  -14.38717 -10.28091 -10.28000  -1.02097  -0.81937
 Alpha  occ. eigenvalues --   -0.74547  -0.59597  -0.54865  -0.53197  -0.48621
 Alpha  occ. eigenvalues --   -0.46853  -0.46224  -0.30914
 Alpha virt. eigenvalues --    0.18184   0.22955   0.24660   0.25447   0.26409
 Alpha virt. eigenvalues --    0.28968   0.29847   0.31874   0.36770   0.63964
 Alpha virt. eigenvalues --    0.64307   0.67899   0.69157   0.70914   0.84305

 Mulliken charges:
               1
     1  C   -0.324430
     2  N   -0.553394
     3  C   -0.322085
     4  H    0.124803
     5  H    0.160148
     6  H    0.162741
     7  H    0.305348
     8  H    0.125458
     9  H    0.155606
    10  H    0.165804
 Sum of Mulliken charges =  -0.00000

 Dipole moment (field-independent basis, Debye):
    X=             -0.0287    Y=             -0.2161    Z=              1.0258  Tot=              1.0487
 Quadrupole moment (field-independent basis, Debye-Ang):
   XX=            -19.5262   YY=            -19.9797   ZZ=            -21.6551
   XY=             -0.0985   XZ=             -0.0633   YZ=              2.0414

 Normal termination of Gaussian 16 at Wed Jun  5 16:57:32 2019.
