 Gaussian 16, Revision A.03,
 Gaussian 16:  ES64L-G16RevA.03 25-Dec-2016

 ----------------
 # 6-31g(d) wb97x
 ----------------

 ---------------------
 tmpdir/M2_ref_179.gjf
 ---------------------
 Symbolic Z-matrix:
 Charge =  0 Multiplicity = 1

                         Standard orientation:
 ---------------------------------------------------------------------
 Center     Atomic      Atomic             Coordinates (Angstroms)
 Number     Number       Type             X           Y           Z
 ---------------------------------------------------------------------
      1          6           0        0.547951    0.014192   -0.000684
      2          1           0        1.127696   -0.904224    0.001403
      3          1           0        1.010511    0.905142    0.001480
      4          8           0       -0.678239   -0.010759    0.000153
 ---------------------------------------------------------------------

 SCF Done:  E(RwB97X) =  -114.457800535     A.U. after   14 cycles

 The electronic state is 1-A.
 Alpha  occ. eigenvalues --  -19.22997 -10.35860  -1.17066  -0.77321  -0.62246
 Alpha  occ. eigenvalues --   -0.54975  -0.49512  -0.36874
 Alpha virt. eigenvalues --    0.05591   0.21888   0.29661   0.31766   0.62171
 Alpha virt. eigenvalues --    0.70754   0.74296   0.78545   0.96144   0.98178
 Alpha virt. eigenvalues --    1.06432   1.07914   1.17822   1.48372   1.60972

 Mulliken charges:
               1
     1  C    0.055665
     2  H    0.139300
     3  H    0.155914
     4  O   -0.350878
 Sum of Mulliken charges =   0.00000

 Dipole moment (field-independent basis, Debye):
    X=              2.4504    Y=              0.1104    Z=              0.0003  Tot=              2.4528
 Quadrupole moment (field-independent basis, Debye-Ang):
   XX=            -11.7672   YY=            -11.2436   ZZ=            -11.3350
   XY=              0.0068   XZ=              0.0012   YZ=             -0.0000

 Normal termination of Gaussian 16 at Wed Jun  5 16:58:50 2019.
