 Gaussian 16, Revision A.03,
 Gaussian 16:  ES64L-G16RevA.03 25-Dec-2016

 ----------------
 # 6-31g(d) wb97x
 ----------------

 ---------------------
 tmpdir/M2_ref_149.gjf
 ---------------------
 Symbolic Z-matrix:
 Charge =  0 Multiplicity = 1

                         Standard orientation:
 ---------------------------------------------------------------------
 Center     Atomic      Atomic             Coordinates (Angstroms)
 Number     Number       Type             X           Y           Z
 ---------------------------------------------------------------------
      1          7           0       -1.515949   -0.603667   -0.002152
      2          6           0       -0.344140    0.113062   -0.000923
      3          7           0        0.750997   -0.672141    0.004461
      4          1           0       -2.461399   -0.339199   -0.005798
      5          1           0       -1.329424   -1.595001    0.007677
      6          8           0       -0.360226    1.386714    0.001782
      7          8           0        1.761517   -0.113404   -0.003344
 ---------------------------------------------------------------------

 SCF Done:  E(RwB97X) =  -299.067873520     A.U. after   20 cycles

 The electronic state is 1-A.
 Alpha  occ. eigenvalues --  -19.31425 -19.20843 -14.54509 -14.46654 -10.41633
 Alpha  occ. eigenvalues --   -1.36749  -1.16419  -1.06522  -0.93860  -0.72752
 Alpha  occ. eigenvalues --   -0.67837  -0.66784  -0.63796  -0.59297  -0.53471
 Alpha  occ. eigenvalues --   -0.51052  -0.39589  -0.38859  -0.34684
 Alpha virt. eigenvalues --   -0.04149   0.15424   0.17161   0.21871   0.32122
 Alpha virt. eigenvalues --    0.38045   0.45376   0.51794   0.63315   0.66999
 Alpha virt. eigenvalues --    0.68593   0.70813   0.76577   0.79564   0.80213

 Mulliken charges:
               1
     1  N   -0.759309
     2  C    0.662788
     3  N    0.005321
     4  H    0.385695
     5  H    0.361254
     6  O   -0.465358
     7  O   -0.190391
 Sum of Mulliken charges =   0.00000

 Dipole moment (field-independent basis, Debye):
    X=             -2.8153    Y=             -3.0713    Z=             -0.0018  Tot=              4.1664
 Quadrupole moment (field-independent basis, Debye-Ang):
   XX=            -22.9916   YY=            -30.3496   ZZ=            -26.6116
   XY=              3.1943   XZ=              0.0032   YZ=             -0.0044

 Normal termination of Gaussian 16 at Wed Jun  5 16:58:43 2019.
