 Gaussian 16, Revision A.03,
 Gaussian 16:  ES64L-G16RevA.03 25-Dec-2016

 ----------------
 # 6-31g(d) wb97x
 ----------------

 --------------------
 tmpdir/M2_ref_93.gjf
 --------------------
 Symbolic Z-matrix:
 Charge =  0 Multiplicity = 1

                         Standard orientation:
 ---------------------------------------------------------------------
 Center     Atomic      Atomic             Coordinates (Angstroms)
 Number     Number       Type             X           Y           Z
 ---------------------------------------------------------------------
      1          6           0        0.538129   -0.003012   -0.002000
      2          8           0       -0.683605   -0.001690    0.000484
      3          1           0        1.100899    0.927818    0.003977
      4          1           0        1.139173   -0.896222    0.004151
 ---------------------------------------------------------------------

 SCF Done:  E(RwB97X) =  -114.465186386     A.U. after   14 cycles

 The electronic state is 1-A.
 Alpha  occ. eigenvalues --  -19.23482 -10.36784  -1.17537  -0.76702  -0.60992
 Alpha  occ. eigenvalues --   -0.55541  -0.49909  -0.37008
 Alpha virt. eigenvalues --    0.05562   0.20965   0.28873   0.31515   0.61908
 Alpha virt. eigenvalues --    0.72464   0.72982   0.79523   0.94886   0.95975
 Alpha virt. eigenvalues --    1.02229   1.07672   1.17410   1.48422   1.61106

 Mulliken charges:
               1
     1  C    0.058945
     2  O   -0.340443
     3  H    0.137907
     4  H    0.143591
 Sum of Mulliken charges =  -0.00000

 Dipole moment (field-independent basis, Debye):
    X=              2.4070    Y=             -0.0190    Z=              0.0004  Tot=              2.4071
 Quadrupole moment (field-independent basis, Debye-Ang):
   XX=            -11.7452   YY=            -11.4374   ZZ=            -11.4028
   XY=             -0.0556   XZ=              0.0037   YZ=              0.0002

 Normal termination of Gaussian 16 at Wed Jun  5 16:58:13 2019.
