 Gaussian 16, Revision A.03,
 Gaussian 16:  ES64L-G16RevA.03 25-Dec-2016

 ----------------
 # 6-31g(d) wb97x
 ----------------

 ---------------------
 tmpdir/M2_ref_150.gjf
 ---------------------
 Symbolic Z-matrix:
 Charge =  0 Multiplicity = 1

                         Standard orientation:
 ---------------------------------------------------------------------
 Center     Atomic      Atomic             Coordinates (Angstroms)
 Number     Number       Type             X           Y           Z
 ---------------------------------------------------------------------
      1          7           0       -1.402416   -0.461393   -0.001223
      2          6           0       -0.574503    0.580263    0.002526
      3          7           0        0.772118    0.530567   -0.003856
      4          1           0       -1.014996   -1.316031   -0.001720
      5          1           0       -0.957802    1.589613    0.005204
      6          8           0        1.228987   -0.529922    0.002114
 ---------------------------------------------------------------------

 SCF Done:  E(RwB97X) =  -223.823524953     A.U. after   22 cycles

 The electronic state is 1-A.
 Alpha  occ. eigenvalues --  -19.30154 -14.53417 -14.44574 -10.36189  -1.35819
 Alpha  occ. eigenvalues --   -1.06337  -0.93115  -0.73321  -0.67216  -0.63587
 Alpha  occ. eigenvalues --   -0.62254  -0.53698  -0.44537  -0.42276  -0.34175
 Alpha virt. eigenvalues --   -0.04840   0.12623   0.21798   0.24653   0.35716
 Alpha virt. eigenvalues --    0.37446   0.52523   0.62615   0.65970   0.68665
 Alpha virt. eigenvalues --    0.77775   0.79110   0.79685   0.80787   0.85076

 Mulliken charges:
               1
     1  N   -0.464332
     2  C    0.099103
     3  N    0.061652
     4  H    0.343751
     5  H    0.204395
     6  O   -0.244569
 Sum of Mulliken charges =  -0.00000

 Dipole moment (field-independent basis, Debye):
    X=             -0.3044    Y=              0.1952    Z=              0.0094  Tot=              0.3617
 Quadrupole moment (field-independent basis, Debye-Ang):
   XX=            -28.6157   YY=            -19.7828   ZZ=            -21.3738
   XY=             -0.7661   XZ=              0.0122   YZ=              0.0324

 Normal termination of Gaussian 16 at Wed Jun  5 16:58:18 2019.
