 Gaussian 16, Revision A.03,
 Gaussian 16:  ES64L-G16RevA.03 25-Dec-2016

 ----------------
 # 6-31g(d) wb97x
 ----------------

 --------------------
 tmpdir/M2_ref_75.gjf
 --------------------
 Symbolic Z-matrix:
 Charge =  0 Multiplicity = 1

                         Standard orientation:
 ---------------------------------------------------------------------
 Center     Atomic      Atomic             Coordinates (Angstroms)
 Number     Number       Type             X           Y           Z
 ---------------------------------------------------------------------
      1          6           0        0.695412    0.485733   -0.004212
      2          6           0       -0.701630    0.487771   -0.007460
      3          6           0        1.396646   -0.713640   -0.000859
      4          1           0        1.249494    1.421570    0.036878
      5          6           0       -1.381761   -0.729309    0.005919
      6          1           0       -1.301496    1.395100    0.002800
 ---------------------------------------------------------------------

 SCF Done:  E(RwB97X) =  -153.248131534     A.U. after   18 cycles

 The electronic state is 1-A.
 Alpha  occ. eigenvalues --  -10.36195 -10.36120 -10.31261 -10.31197  -0.97996
 Alpha  occ. eigenvalues --   -0.84709  -0.72007  -0.60636  -0.59468  -0.46740
 Alpha  occ. eigenvalues --   -0.42482  -0.40010  -0.33312
 Alpha virt. eigenvalues --   -0.03357   0.00667   0.02686   0.16796   0.20998
 Alpha virt. eigenvalues --    0.24796   0.35035   0.45867   0.48159   0.58286
 Alpha virt. eigenvalues --    0.60895   0.63303   0.66163   0.66593   0.69145

 Mulliken charges:
               1
     1  C   -0.270937
     2  C   -0.268966
     3  C    0.032943
     4  H    0.236688
     5  C    0.034098
     6  H    0.236174
 Sum of Mulliken charges =   0.00000

 Dipole moment (field-independent basis, Debye):
    X=             -0.0705    Y=              3.4536    Z=              0.0413  Tot=              3.4545
 Quadrupole moment (field-independent basis, Debye-Ang):
   XX=            -24.0674   YY=            -23.5004   ZZ=            -25.4620
   XY=             -0.0063   XZ=              0.1033   YZ=              0.1016

 Normal termination of Gaussian 16 at Wed Jun  5 16:57:34 2019.
