 Gaussian 16, Revision A.03,
 Gaussian 16:  ES64L-G16RevA.03 25-Dec-2016

 ----------------
 # 6-31g(d) wb97x
 ----------------

 ---------------------
 tmpdir/M2_ref_103.gjf
 ---------------------
 Symbolic Z-matrix:
 Charge =  0 Multiplicity = 1

                         Standard orientation:
 ---------------------------------------------------------------------
 Center     Atomic      Atomic             Coordinates (Angstroms)
 Number     Number       Type             X           Y           Z
 ---------------------------------------------------------------------
      1          6           0       -0.693704   -0.012189   -0.004657
      2          6           0        0.700852   -0.002667    0.000382
      3          1           0       -1.292702    0.924145    0.014032
      4          1           0       -1.198989   -0.884671    0.006983
      5          1           0        1.242993    0.928558   -0.001690
      6          1           0        1.205809   -0.878895    0.006321
 ---------------------------------------------------------------------

 SCF Done:  E(RwB97X) =  -78.5429316600     A.U. after   13 cycles

 The electronic state is 1-A.
 Alpha  occ. eigenvalues --  -10.26928 -10.26654  -0.87647  -0.71088  -0.58152
 Alpha  occ. eigenvalues --   -0.51172  -0.47147  -0.35629
 Alpha virt. eigenvalues --    0.09887   0.22288   0.26002   0.26850   0.35019
 Alpha virt. eigenvalues --    0.40977   0.59895   0.65858   0.66620   0.74553
 Alpha virt. eigenvalues --    0.75807   0.77431   0.98748   1.00784   1.08507

 Mulliken charges:
               1
     1  C   -0.333399
     2  C   -0.332582
     3  H    0.159305
     4  H    0.170445
     5  H    0.165129
     6  H    0.171102
 Sum of Mulliken charges =  -0.00000

 Dipole moment (field-independent basis, Debye):
    X=             -0.0006    Y=             -0.0546    Z=              0.0242  Tot=              0.0597
 Quadrupole moment (field-independent basis, Debye-Ang):
   XX=            -11.7916   YY=            -11.9678   ZZ=            -15.1386
   XY=             -0.0076   XZ=             -0.0214   YZ=             -0.0011

 Normal termination of Gaussian 16 at Wed Jun  5 16:58:02 2019.
