 Gaussian 16, Revision A.03,
 Gaussian 16:  ES64L-G16RevA.03 25-Dec-2016

 ----------------
 # 6-31g(d) wb97x
 ----------------

 --------------------
 tmpdir/M2_ref_17.gjf
 --------------------
 Symbolic Z-matrix:
 Charge =  0 Multiplicity = 1

                         Standard orientation:
 ---------------------------------------------------------------------
 Center     Atomic      Atomic             Coordinates (Angstroms)
 Number     Number       Type             X           Y           Z
 ---------------------------------------------------------------------
      1          1           0       -1.100188   -0.897605   -0.478228
      2          6           0       -0.704915    0.000561    0.011210
      3          7           0        0.743324    0.001991   -0.113637
      4          1           0       -1.134201    0.896705   -0.464366
      5          1           0       -1.019100   -0.027254    1.073849
      6          1           0        1.150945   -0.834022    0.289708
      7          1           0        1.128766    0.844873    0.307235
 ---------------------------------------------------------------------

 SCF Done:  E(RwB97X) =  -95.8215613832     A.U. after   13 cycles

 The electronic state is 1-A.
 Alpha  occ. eigenvalues --  -14.37956 -10.28046  -0.99496  -0.77374  -0.60202
 Alpha  occ. eigenvalues --   -0.53576  -0.50535  -0.47025  -0.32180
 Alpha virt. eigenvalues --    0.18455   0.24245   0.25493   0.27561   0.29057
 Alpha virt. eigenvalues --    0.34243   0.66057   0.67772   0.69761   0.84858
 Alpha virt. eigenvalues --    0.87310   0.89559   0.97732   1.02599   1.04789

 Mulliken charges:
               1
     1  H    0.162357
     2  C   -0.328275
     3  N   -0.741628
     4  H    0.162498
     5  H    0.127431
     6  H    0.309969
     7  H    0.307647
 Sum of Mulliken charges =  -0.00000

 Dipole moment (field-independent basis, Debye):
    X=             -0.1613    Y=             -0.0149    Z=              1.3593  Tot=              1.3689
 Quadrupole moment (field-independent basis, Debye-Ang):
   XX=            -13.6224   YY=            -12.1322   ZZ=            -15.2659
   XY=             -0.0737   XZ=              2.0567   YZ=              0.0218

 Normal termination of Gaussian 16 at Wed Jun  5 16:57:22 2019.
