 Gaussian 16, Revision A.03,
 Gaussian 16:  ES64L-G16RevA.03 25-Dec-2016

 ----------------
 # 6-31g(d) wb97x
 ----------------

 ---------------------
 tmpdir/M2_ref_124.gjf
 ---------------------
 Symbolic Z-matrix:
 Charge =  0 Multiplicity = 1

                         Standard orientation:
 ---------------------------------------------------------------------
 Center     Atomic      Atomic             Coordinates (Angstroms)
 Number     Number       Type             X           Y           Z
 ---------------------------------------------------------------------
      1          6           0        0.703340   -0.012022   -0.000178
      2          6           0       -0.708175   -0.008114   -0.000143
      3          1           0        1.174174   -0.900632    0.000925
      4          1           0        1.275835    0.917446    0.000105
      5          1           0       -1.226192   -0.876705    0.000088
      6          1           0       -1.194810    0.980709    0.000809
 ---------------------------------------------------------------------

 SCF Done:  E(RwB97X) =  -78.5395795156     A.U. after   12 cycles

 The electronic state is 1-A.
 Alpha  occ. eigenvalues --  -10.27056 -10.26841  -0.87393  -0.70906  -0.58499
 Alpha  occ. eigenvalues --   -0.50394  -0.47518  -0.35333
 Alpha virt. eigenvalues --    0.09590   0.21830   0.26263   0.26968   0.34784
 Alpha virt. eigenvalues --    0.39973   0.60057   0.66498   0.66812   0.74448
 Alpha virt. eigenvalues --    0.75553   0.76713   0.99293   1.00149   1.07813

 Mulliken charges:
               1
     1  C   -0.334829
     2  C   -0.334769
     3  H    0.169763
     4  H    0.165098
     5  H    0.174090
     6  H    0.160646
 Sum of Mulliken charges =  -0.00000

 Dipole moment (field-independent basis, Debye):
    X=              0.0193    Y=             -0.0455    Z=              0.0019  Tot=              0.0494
 Quadrupole moment (field-independent basis, Debye-Ang):
   XX=            -11.9806   YY=            -11.8193   ZZ=            -15.1952
   XY=              0.1387   XZ=              0.0002   YZ=             -0.0000

 Normal termination of Gaussian 16 at Wed Jun  5 16:58:23 2019.
