 Gaussian 16, Revision A.03,
 Gaussian 16:  ES64L-G16RevA.03 25-Dec-2016

 ----------------
 # 6-31g(d) wb97x
 ----------------

 --------------------
 tmpdir/M2_ref_92.gjf
 --------------------
 Symbolic Z-matrix:
 Charge =  0 Multiplicity = 1

                         Standard orientation:
 ---------------------------------------------------------------------
 Center     Atomic      Atomic             Coordinates (Angstroms)
 Number     Number       Type             X           Y           Z
 ---------------------------------------------------------------------
      1          6           0       -1.455731   -0.485038    0.054667
      2          6           0       -0.655970    0.649274   -0.078599
      3          6           0        0.825833    0.473085    0.097951
      4          1           0       -2.452912   -0.418415   -0.054095
      5          1           0       -0.978089   -1.433042    0.285241
      6          1           0       -1.090452    1.533605   -0.306452
      7          8           0        1.360514   -0.607779   -0.098241
      8          1           0        1.352542    1.356161    0.417121
 ---------------------------------------------------------------------

 SCF Done:  E(RwB97X) =  -191.835252472     A.U. after   16 cycles

 The electronic state is 1-A.
 Alpha  occ. eigenvalues --  -19.21655 -10.36417 -10.29101 -10.28568  -1.16575
 Alpha  occ. eigenvalues --   -0.91295  -0.78316  -0.67793  -0.62997  -0.55176
 Alpha  occ. eigenvalues --   -0.53357  -0.50195  -0.49327  -0.37346  -0.35864
 Alpha virt. eigenvalues --    0.02552   0.14296   0.22681   0.23494   0.26667
 Alpha virt. eigenvalues --    0.30184   0.35680   0.39988   0.42718   0.62425
 Alpha virt. eigenvalues --    0.63073   0.67992   0.69209   0.70043   0.74889

 Mulliken charges:
               1
     1  C   -0.315395
     2  C   -0.205316
     3  C    0.211948
     4  H    0.183292
     5  H    0.201558
     6  H    0.175089
     7  O   -0.392872
     8  H    0.141695
 Sum of Mulliken charges =  -0.00000

 Dipole moment (field-independent basis, Debye):
    X=             -1.9215    Y=              1.7742    Z=              0.3729  Tot=              2.6418
 Quadrupole moment (field-independent basis, Debye-Ang):
   XX=            -23.5198   YY=            -21.6924   ZZ=            -24.2469
   XY=              2.9082   XZ=              0.7086   YZ=             -0.6186

 Normal termination of Gaussian 16 at Wed Jun  5 16:58:09 2019.
