 Gaussian 16, Revision A.03,
 Gaussian 16:  ES64L-G16RevA.03 25-Dec-2016

 ----------------
 # 6-31g(d) wb97x
 ----------------

 --------------------
 tmpdir/M2_ref_22.gjf
 --------------------
 Symbolic Z-matrix:
 Charge =  0 Multiplicity = 1

                         Standard orientation:
 ---------------------------------------------------------------------
 Center     Atomic      Atomic             Coordinates (Angstroms)
 Number     Number       Type             X           Y           Z
 ---------------------------------------------------------------------
      1          6           0        1.191013   -0.233898    0.018228
      2          7           0        0.000044    0.581133   -0.155838
      3          6           0       -1.191055   -0.234011    0.018154
      4          1           0        1.192948   -1.072112   -0.696563
      5          1           0        2.074935    0.392614   -0.151061
      6          1           0        1.256249   -0.639831    1.047621
      7          1           0        0.000311    1.376761    0.472444
      8          1           0       -2.074724    0.392139   -0.153548
      9          1           0       -1.257941   -0.637120    1.048790
     10          1           0       -1.191838   -1.072927   -0.695108
 ---------------------------------------------------------------------

 SCF Done:  E(RwB97X) =  -135.119996984     A.U. after   13 cycles

 The electronic state is 1-A.
 Alpha  occ. eigenvalues --  -14.38683 -10.27994 -10.27993  -1.02241  -0.81863
 Alpha  occ. eigenvalues --   -0.74518  -0.59658  -0.54890  -0.53320  -0.48697
 Alpha  occ. eigenvalues --   -0.47318  -0.45449  -0.31043
 Alpha virt. eigenvalues --    0.18115   0.22783   0.25267   0.25525   0.26373
 Alpha virt. eigenvalues --    0.29246   0.29630   0.31557   0.36539   0.64086
 Alpha virt. eigenvalues --    0.64154   0.68492   0.69569   0.70730   0.84096

 Mulliken charges:
               1
     1  C   -0.323531
     2  N   -0.552044
     3  C   -0.323556
     4  H    0.160237
     5  H    0.161487
     6  H    0.123562
     7  H    0.308348
     8  H    0.161528
     9  H    0.123574
    10  H    0.160395
 Sum of Mulliken charges =   0.00000

 Dipole moment (field-independent basis, Debye):
    X=             -0.0004    Y=             -0.1590    Z=              1.0351  Tot=              1.0472
 Quadrupole moment (field-independent basis, Debye-Ang):
   XX=            -19.6938   YY=            -19.8757   ZZ=            -21.6516
   XY=              0.0015   XZ=              0.0009   YZ=              2.1781

 Normal termination of Gaussian 16 at Wed Jun  5 16:57:28 2019.
