 Gaussian 16, Revision A.03,
 Gaussian 16:  ES64L-G16RevA.03 25-Dec-2016

 ----------------
 # 6-31g(d) wb97x
 ----------------

 ---------------------
 tmpdir/M2_ref_163.gjf
 ---------------------
 Symbolic Z-matrix:
 Charge =  0 Multiplicity = 1

                         Standard orientation:
 ---------------------------------------------------------------------
 Center     Atomic      Atomic             Coordinates (Angstroms)
 Number     Number       Type             X           Y           Z
 ---------------------------------------------------------------------
      1          6           0       -0.754572    0.501845   -0.003751
      2          6           0        0.626171    0.663947   -0.000954
      3          6           0        1.386513   -0.503222   -0.002012
      4          8           0       -1.325154   -0.631011    0.002366
      5          1           0       -1.414822    1.368394   -0.005922
      6          1           0        1.075712    1.649475    0.023938
      7          1           0        0.930480   -1.452686    0.009130
      8          1           0        2.461182   -0.492519   -0.005770
 ---------------------------------------------------------------------

 SCF Done:  E(RwB97X) =  -191.837631941     A.U. after   16 cycles

 The electronic state is 1-A.
 Alpha  occ. eigenvalues --  -19.20230 -10.35304 -10.30733 -10.29335  -1.13487
 Alpha  occ. eigenvalues --   -0.92654  -0.79579  -0.66653  -0.63161  -0.55317
 Alpha  occ. eigenvalues --   -0.51845  -0.49442  -0.49197  -0.37031  -0.35414
 Alpha virt. eigenvalues --    0.00554   0.16724   0.20299   0.23608   0.26556
 Alpha virt. eigenvalues --    0.29581   0.34462   0.41287   0.45579   0.62094
 Alpha virt. eigenvalues --    0.62786   0.68670   0.68890   0.70250   0.74349

 Mulliken charges:
               1
     1  C    0.204012
     2  C   -0.191550
     3  C   -0.300387
     4  O   -0.438127
     5  H    0.141034
     6  H    0.181474
     7  H    0.220643
     8  H    0.182901
 Sum of Mulliken charges =  -0.00000

 Dipole moment (field-independent basis, Debye):
    X=              2.4443    Y=              1.7209    Z=              0.0115  Tot=              2.9894
 Quadrupole moment (field-independent basis, Debye-Ang):
   XX=            -23.6021   YY=            -21.4705   ZZ=            -24.3966
   XY=             -3.2669   XZ=              0.0323   YZ=              0.0267

 Normal termination of Gaussian 16 at Wed Jun  5 16:58:35 2019.
