 Gaussian 16, Revision A.03,
 Gaussian 16:  ES64L-G16RevA.03 25-Dec-2016

 ----------------
 # 6-31g(d) wb97x
 ----------------

 --------------------
 tmpdir/M2_ref_91.gjf
 --------------------
 Symbolic Z-matrix:
 Charge =  0 Multiplicity = 1

                         Standard orientation:
 ---------------------------------------------------------------------
 Center     Atomic      Atomic             Coordinates (Angstroms)
 Number     Number       Type             X           Y           Z
 ---------------------------------------------------------------------
      1          6           0        1.234833   -0.631001   -0.030262
      2          6           0        0.034511    0.074776    0.083088
      3          6           0       -1.313579   -0.585307    0.153074
      4          8           0        2.301536   -0.032794   -0.097798
      5          1           0        1.232995   -1.717050   -0.100829
      6          8           0        0.062800    1.303525    0.102469
      7          8           0       -2.321574   -0.002172   -0.216440
      8          1           0       -1.309678   -1.582226    0.559586
 ---------------------------------------------------------------------

 SCF Done:  E(RwB97X) =  -341.017931023     A.U. after   18 cycles

 The electronic state is 1-A.
 Alpha  occ. eigenvalues --  -19.26943 -19.26805 -19.26695 -10.40162 -10.39574
 Alpha  occ. eigenvalues --  -10.39506  -1.23760  -1.20920  -1.18512  -0.91752
 Alpha  occ. eigenvalues --   -0.79343  -0.69737  -0.67992  -0.60254  -0.59594
 Alpha  occ. eigenvalues --   -0.57485  -0.57021  -0.52789  -0.48514  -0.43563
 Alpha  occ. eigenvalues --   -0.41878  -0.37817
 Alpha virt. eigenvalues --   -0.06566   0.02900   0.15592   0.18949   0.22571
 Alpha virt. eigenvalues --    0.25946   0.35751   0.36368   0.43992   0.49987
 Alpha virt. eigenvalues --    0.56773   0.58533   0.64238   0.69681   0.71465

 Mulliken charges:
               1
     1  C    0.158147
     2  C    0.331368
     3  C    0.181173
     4  O   -0.323951
     5  H    0.161984
     6  O   -0.341590
     7  O   -0.327522
     8  H    0.160392
 Sum of Mulliken charges =  -0.00000

 Dipole moment (field-independent basis, Debye):
    X=             -0.0791    Y=             -3.9297    Z=              0.7064  Tot=              3.9934
 Quadrupole moment (field-independent basis, Debye-Ang):
   XX=            -43.2535   YY=            -31.9629   ZZ=            -30.3321
   XY=             -0.0820   XZ=             -1.0125   YZ=             -0.3867

 Normal termination of Gaussian 16 at Wed Jun  5 16:57:59 2019.
