 Gaussian 16, Revision A.03,
 Gaussian 16:  ES64L-G16RevA.03 25-Dec-2016

 ----------------
 # 6-31g(d) wb97x
 ----------------

 ---------------------
 tmpdir/M2_ref_115.gjf
 ---------------------
 Symbolic Z-matrix:
 Charge =  0 Multiplicity = 1

                         Standard orientation:
 ---------------------------------------------------------------------
 Center     Atomic      Atomic             Coordinates (Angstroms)
 Number     Number       Type             X           Y           Z
 ---------------------------------------------------------------------
      1          6           0        0.690295    0.504118   -0.004730
      2          6           0       -0.702599    0.502249   -0.000396
      3          1           0       -1.255995    1.439009   -0.007032
      4          1           0        1.198878    1.492274    0.022840
      5          8           0        1.315062   -0.554803    0.000054
      6          8           0       -1.298695   -0.566383    0.001815
 ---------------------------------------------------------------------

 SCF Done:  E(RwB97X) =  -227.738497202     A.U. after   16 cycles

 The electronic state is 1-A.
 Alpha  occ. eigenvalues --  -19.25582 -19.25411 -10.38296 -10.37953  -1.21775
 Alpha  occ. eigenvalues --   -1.17584  -0.87845  -0.69020  -0.66829  -0.58228
 Alpha  occ. eigenvalues --   -0.56403  -0.55238  -0.47942  -0.41121  -0.38155
 Alpha virt. eigenvalues --   -0.03630   0.14314   0.20225   0.23584   0.27330
 Alpha virt. eigenvalues --    0.41348   0.49006   0.58836   0.61680   0.67335
 Alpha virt. eigenvalues --    0.69945   0.77546   0.77881   0.85693   0.92016

 Mulliken charges:
               1
     1  C    0.183120
     2  C    0.176594
     3  H    0.156816
     4  H    0.148224
     5  O   -0.334744
     6  O   -0.330010
 Sum of Mulliken charges =  -0.00000

 Dipole moment (field-independent basis, Debye):
    X=             -0.0976    Y=              3.6238    Z=             -0.0049  Tot=              3.6251
 Quadrupole moment (field-independent basis, Debye-Ang):
   XX=            -25.5113   YY=            -21.1945   ZZ=            -20.8230
   XY=             -0.1268   XZ=              0.0156   YZ=              0.0049

 Normal termination of Gaussian 16 at Wed Jun  5 16:57:49 2019.
