 Gaussian 16, Revision A.03,
 Gaussian 16:  ES64L-G16RevA.03 25-Dec-2016

 ----------------
 # 6-31g(d) wb97x
 ----------------

 ---------------------
 tmpdir/M2_ref_108.gjf
 ---------------------
 Symbolic Z-matrix:
 Charge =  0 Multiplicity = 1

                         Standard orientation:
 ---------------------------------------------------------------------
 Center     Atomic      Atomic             Coordinates (Angstroms)
 Number     Number       Type             X           Y           Z
 ---------------------------------------------------------------------
      1          6           0        0.549171   -0.011522   -0.000041
      2          1           0        1.111989    0.907356    0.000085
      3          8           0       -0.680180    0.007576    0.000009
      4          1           0        1.034426   -0.898833    0.000089
 ---------------------------------------------------------------------

 SCF Done:  E(RwB97X) =  -114.458699345     A.U. after   13 cycles

 The electronic state is 1-A.
 Alpha  occ. eigenvalues --  -19.23032 -10.35907  -1.16905  -0.77395  -0.62178
 Alpha  occ. eigenvalues --   -0.54965  -0.49416  -0.36904
 Alpha virt. eigenvalues --    0.05495   0.21965   0.29693   0.31633   0.62190
 Alpha virt. eigenvalues --    0.70782   0.74044   0.78320   0.96490   0.98213
 Alpha virt. eigenvalues --    1.05902   1.07900   1.17786   1.48277   1.60894

 Mulliken charges:
               1
     1  C    0.054990
     2  H    0.141373
     3  O   -0.351872
     4  H    0.155508
 Sum of Mulliken charges =  -0.00000

 Dipole moment (field-independent basis, Debye):
    X=              2.4652    Y=             -0.0881    Z=              0.0000  Tot=              2.4668
 Quadrupole moment (field-independent basis, Debye-Ang):
   XX=            -11.7491   YY=            -11.2537   ZZ=            -11.3407
   XY=             -0.0219   XZ=              0.0001   YZ=              0.0000

 Normal termination of Gaussian 16 at Wed Jun  5 16:58:09 2019.
