 Gaussian 16, Revision A.03,
 Gaussian 16:  ES64L-G16RevA.03 25-Dec-2016

 ----------------
 # 6-31g(d) wb97x
 ----------------

 ---------------------
 tmpdir/M2_ref_172.gjf
 ---------------------
 Symbolic Z-matrix:
 Charge =  0 Multiplicity = 1

                         Standard orientation:
 ---------------------------------------------------------------------
 Center     Atomic      Atomic             Coordinates (Angstroms)
 Number     Number       Type             X           Y           Z
 ---------------------------------------------------------------------
      1          6           0       -1.460660    0.246990    0.137615
      2          6           0        0.011522    0.402251    0.024459
      3          6           0        0.875653   -0.694370    0.069659
      4          1           0       -1.993755    1.092583    0.469810
      5          8           0       -2.037742   -0.799342   -0.145828
      6          8           0        0.512053    1.519560   -0.094612
      7          8           0        2.144773   -0.610354   -0.018430
      8          1           0        0.481984   -1.700715    0.210753
 ---------------------------------------------------------------------

 SCF Done:  E(RwB97X) =  -341.018978757     A.U. after   20 cycles

 The electronic state is 1-A.
 Alpha  occ. eigenvalues --  -19.27911 -19.27730 -19.26314 -10.40656 -10.40517
 Alpha  occ. eigenvalues --  -10.39149  -1.23615  -1.21320  -1.17008  -0.91093
 Alpha  occ. eigenvalues --   -0.81857  -0.68650  -0.67139  -0.61699  -0.59786
 Alpha  occ. eigenvalues --   -0.57690  -0.56027  -0.52500  -0.48083  -0.45310
 Alpha  occ. eigenvalues --   -0.41555  -0.38060
 Alpha virt. eigenvalues --   -0.07157   0.01906   0.15609   0.21522   0.22798
 Alpha virt. eigenvalues --    0.25992   0.35626   0.36883   0.40371   0.48005
 Alpha virt. eigenvalues --    0.56637   0.60869   0.64106   0.67971   0.71446

 Mulliken charges:
               1
     1  C    0.174041
     2  C    0.345757
     3  C    0.156746
     4  H    0.191287
     5  O   -0.347804
     6  O   -0.359234
     7  O   -0.347768
     8  H    0.186976
 Sum of Mulliken charges =  -0.00000

 Dipole moment (field-independent basis, Debye):
    X=             -2.1233    Y=             -0.0600    Z=              0.9075  Tot=              2.3099
 Quadrupole moment (field-independent basis, Debye-Ang):
   XX=            -40.7932   YY=            -34.8508   ZZ=            -30.3287
   XY=             -4.1095   XZ=             -0.7751   YZ=              0.0590

 Normal termination of Gaussian 16 at Wed Jun  5 16:58:53 2019.
