 Gaussian 16, Revision A.03,
 Gaussian 16:  ES64L-G16RevA.03 25-Dec-2016

 ----------------
 # 6-31g(d) wb97x
 ----------------

 ---------------------
 tmpdir/M2_ref_192.gjf
 ---------------------
 Symbolic Z-matrix:
 Charge =  0 Multiplicity = 1

                         Standard orientation:
 ---------------------------------------------------------------------
 Center     Atomic      Atomic             Coordinates (Angstroms)
 Number     Number       Type             X           Y           Z
 ---------------------------------------------------------------------
      1          6           0        0.763204    0.502861   -0.006183
      2          6           0       -0.630925    0.590742   -0.001532
      3          7           0       -1.447006   -0.461789   -0.001390
      4          1           0        1.387838    1.377422   -0.002026
      5          8           0        1.264932   -0.620194    0.004001
      6          1           0       -1.121676    1.563360    0.026570
      7          1           0       -1.050249   -1.308321   -0.000533
 ---------------------------------------------------------------------

 SCF Done:  E(RwB97X) =  -207.864643353     A.U. after   16 cycles

 The electronic state is 1-A.
 Alpha  occ. eigenvalues --  -19.23941 -14.42848 -10.37482 -10.33720  -1.19011
 Alpha  occ. eigenvalues --   -1.03884  -0.85581  -0.71338  -0.65301  -0.59657
 Alpha  occ. eigenvalues --   -0.53598  -0.53309  -0.42215  -0.40161  -0.37974
 Alpha virt. eigenvalues --   -0.01974   0.15145   0.21010   0.24018   0.25218
 Alpha virt. eigenvalues --    0.32594   0.44430   0.47190   0.60608   0.62854
 Alpha virt. eigenvalues --    0.68930   0.70099   0.73489   0.77624   0.82091

 Mulliken charges:
               1
     1  C    0.208809
     2  C   -0.035553
     3  N   -0.470707
     4  H    0.161482
     5  O   -0.387480
     6  H    0.182125
     7  H    0.341325
 Sum of Mulliken charges =  -0.00000

 Dipole moment (field-independent basis, Debye):
    X=              0.5505    Y=              2.0334    Z=             -0.0051  Tot=              2.1066
 Quadrupole moment (field-independent basis, Debye-Ang):
   XX=            -28.9692   YY=            -19.4555   ZZ=            -22.6238
   XY=              2.1994   XZ=             -0.0277   YZ=              0.0346

 Normal termination of Gaussian 16 at Wed Jun  5 16:58:52 2019.
