 Gaussian 16, Revision A.03,
 Gaussian 16:  ES64L-G16RevA.03 25-Dec-2016

 ----------------
 # 6-31g(d) wb97x
 ----------------

 --------------------
 tmpdir/M2_ref_69.gjf
 --------------------
 Symbolic Z-matrix:
 Charge =  0 Multiplicity = 1

                         Standard orientation:
 ---------------------------------------------------------------------
 Center     Atomic      Atomic             Coordinates (Angstroms)
 Number     Number       Type             X           Y           Z
 ---------------------------------------------------------------------
      1          6           0       -0.545437   -0.013457   -0.000533
      2          1           0       -1.116887    0.911043    0.001074
      3          1           0       -1.044363   -0.892007    0.001153
      4          8           0        0.679234    0.007713    0.000121
 ---------------------------------------------------------------------

 SCF Done:  E(RwB97X) =  -114.459235898     A.U. after   13 cycles

 The electronic state is 1-A.
 Alpha  occ. eigenvalues --  -19.23097 -10.35968  -1.17183  -0.77365  -0.62002
 Alpha  occ. eigenvalues --   -0.55133  -0.49610  -0.36918
 Alpha virt. eigenvalues --    0.05594   0.21859   0.29706   0.31650   0.62127
 Alpha virt. eigenvalues --    0.71089   0.73845   0.78881   0.96135   0.97628
 Alpha virt. eigenvalues --    1.05964   1.07868   1.17727   1.48408   1.60953

 Mulliken charges:
               1
     1  C    0.056511
     2  H    0.137131
     3  H    0.155025
     4  O   -0.348666
 Sum of Mulliken charges =   0.00000

 Dipole moment (field-independent basis, Debye):
    X=             -2.4437    Y=             -0.1044    Z=              0.0002  Tot=              2.4460
 Quadrupole moment (field-independent basis, Debye-Ang):
   XX=            -11.7490   YY=            -11.2910   ZZ=            -11.3369
   XY=              0.0469   XZ=             -0.0009   YZ=              0.0000

 Normal termination of Gaussian 16 at Wed Jun  5 16:58:05 2019.
