 Gaussian 16, Revision A.03,
 Gaussian 16:  ES64L-G16RevA.03 25-Dec-2016

 ----------------
 # 6-31g(d) wb97x
 ----------------

 ---------------------
 tmpdir/M2_ref_193.gjf
 ---------------------
 Symbolic Z-matrix:
 Charge =  0 Multiplicity = 1

                         Standard orientation:
 ---------------------------------------------------------------------
 Center     Atomic      Atomic             Coordinates (Angstroms)
 Number     Number       Type             X           Y           Z
 ---------------------------------------------------------------------
      1          6           0        0.741858    0.502181   -0.006158
      2          6           0       -0.654960    0.516952   -0.001463
      3          1           0       -1.195958    1.462543    0.026688
      4          1           0        1.319848    1.408244   -0.001986
      5          8           0        1.301695   -0.593067    0.003971
      6          8           0       -1.382355   -0.530131   -0.001343
 ---------------------------------------------------------------------

 SCF Done:  E(RwB97X) =  -227.732046891     A.U. after   17 cycles

 The electronic state is 1-A.
 Alpha  occ. eigenvalues --  -19.25760 -19.25535 -10.38533 -10.38477  -1.20884
 Alpha  occ. eigenvalues --   -1.15997  -0.88104  -0.69927  -0.66779  -0.57931
 Alpha  occ. eigenvalues --   -0.55731  -0.54751  -0.47098  -0.41012  -0.38337
 Alpha virt. eigenvalues --   -0.04360   0.13470   0.20483   0.23626   0.26418
 Alpha virt. eigenvalues --    0.41646   0.47534   0.58976   0.60834   0.67640
 Alpha virt. eigenvalues --    0.67749   0.75944   0.76982   0.86368   0.93095

 Mulliken charges:
               1
     1  C    0.174883
     2  C    0.174180
     3  H    0.157965
     4  H    0.170991
     5  O   -0.327220
     6  O   -0.350800
 Sum of Mulliken charges =  -0.00000

 Dipole moment (field-independent basis, Debye):
    X=              0.4315    Y=              3.7347    Z=             -0.0051  Tot=              3.7596
 Quadrupole moment (field-independent basis, Debye-Ang):
   XX=            -25.5748   YY=            -21.1268   ZZ=            -20.9159
   XY=              0.3157   XZ=             -0.0282   YZ=              0.0076

 Normal termination of Gaussian 16 at Wed Jun  5 16:59:00 2019.
