 Gaussian 16, Revision A.03,
 Gaussian 16:  ES64L-G16RevA.03 25-Dec-2016

 ----------------
 # 6-31g(d) wb97x
 ----------------

 --------------------
 tmpdir/M2_ref_90.gjf
 --------------------
 Symbolic Z-matrix:
 Charge =  0 Multiplicity = 1

                         Standard orientation:
 ---------------------------------------------------------------------
 Center     Atomic      Atomic             Coordinates (Angstroms)
 Number     Number       Type             X           Y           Z
 ---------------------------------------------------------------------
      1          6           0        0.796912    0.483827   -0.003649
      2          6           0       -0.590562    0.647032   -0.008488
      3          6           0       -1.406585   -0.483450    0.003996
      4          8           0        1.289004   -0.637824   -0.000093
      5          1           0        1.455216    1.349490    0.038164
      6          1           0       -1.081752    1.617511    0.001179
      7          1           0       -0.999993   -1.402824   -0.004541
      8          1           0       -2.484091   -0.346036    0.014792
 ---------------------------------------------------------------------

 SCF Done:  E(RwB97X) =  -191.836998277     A.U. after   15 cycles

 The electronic state is 1-A.
 Alpha  occ. eigenvalues --  -19.20482 -10.35151 -10.29864 -10.28799  -1.16055
 Alpha  occ. eigenvalues --   -0.92174  -0.79344  -0.66678  -0.63521  -0.55483
 Alpha  occ. eigenvalues --   -0.52238  -0.50572  -0.49440  -0.37030  -0.35724
 Alpha virt. eigenvalues --    0.01149   0.17301   0.20342   0.24166   0.26774
 Alpha virt. eigenvalues --    0.30456   0.34894   0.41148   0.46269   0.62053
 Alpha virt. eigenvalues --    0.62980   0.68766   0.68932   0.70541   0.74464

 Mulliken charges:
               1
     1  C    0.213683
     2  C   -0.202798
     3  C   -0.296056
     4  O   -0.414291
     5  H    0.135172
     6  H    0.171232
     7  H    0.213587
     8  H    0.179471
 Sum of Mulliken charges =  -0.00000

 Dipole moment (field-independent basis, Debye):
    X=             -2.1202    Y=              1.7110    Z=              0.0174  Tot=              2.7245
 Quadrupole moment (field-independent basis, Debye-Ang):
   XX=            -23.1481   YY=            -21.8769   ZZ=            -24.2998
   XY=              3.0472   XZ=             -0.0213   YZ=              0.0209

 Normal termination of Gaussian 16 at Wed Jun  5 16:57:41 2019.
