 Gaussian 16, Revision A.03,
 Gaussian 16:  ES64L-G16RevA.03 25-Dec-2016

 ----------------
 # 6-31g(d) wb97x
 ----------------

 ---------------------
 tmpdir/M2_ref_105.gjf
 ---------------------
 Symbolic Z-matrix:
 Charge =  0 Multiplicity = 1

                         Standard orientation:
 ---------------------------------------------------------------------
 Center     Atomic      Atomic             Coordinates (Angstroms)
 Number     Number       Type             X           Y           Z
 ---------------------------------------------------------------------
      1          7           0       -1.177325   -0.198288   -0.021022
      2          6           0        0.066526    0.472908    0.031188
      3          6           0        1.281889   -0.209381   -0.016522
      4          1           0       -1.375197   -1.099536    0.240537
      5          1           0       -1.974219    0.399083   -0.183003
      6          1           0        0.047044    1.480169    0.072645
      7          1           0        1.305106   -1.285287   -0.071192
      8          1           0        2.148047    0.312427    0.000171
 ---------------------------------------------------------------------

 SCF Done:  E(RwB97X) =  -133.879050493     A.U. after   15 cycles

 The electronic state is 1-A.
 Alpha  occ. eigenvalues --  -14.40262 -10.29778 -10.22788  -1.01932  -0.84318
 Alpha  occ. eigenvalues --   -0.71073  -0.62385  -0.58647  -0.49910  -0.47898
 Alpha  occ. eigenvalues --   -0.42409  -0.28067
 Alpha virt. eigenvalues --    0.13467   0.19304   0.24125   0.25730   0.29873
 Alpha virt. eigenvalues --    0.31830   0.42406   0.43817   0.63449   0.66417
 Alpha virt. eigenvalues --    0.68414   0.74715   0.76486   0.78590   0.83499

 Mulliken charges:
               1
     1  N   -0.780525
     2  C    0.063749
     3  C   -0.421232
     4  H    0.347528
     5  H    0.332251
     6  H    0.166351
     7  H    0.139398
     8  H    0.152479
 Sum of Mulliken charges =  -0.00000

 Dipole moment (field-independent basis, Debye):
    X=             -1.6545    Y=              0.2444    Z=              0.2718  Tot=              1.6943
 Quadrupole moment (field-independent basis, Debye-Ang):
   XX=            -15.8815   YY=            -15.7437   ZZ=            -21.9880
   XY=              0.3029   XZ=             -0.1132   YZ=             -0.6501

 Normal termination of Gaussian 16 at Wed Jun  5 16:57:42 2019.
