 Gaussian 16, Revision A.03,
 Gaussian 16:  ES64L-G16RevA.03 25-Dec-2016

 ----------------
 # 6-31g(d) wb97x
 ----------------

 ---------------------
 tmpdir/M2_ref_127.gjf
 ---------------------
 Symbolic Z-matrix:
 Charge =  0 Multiplicity = 1

                         Standard orientation:
 ---------------------------------------------------------------------
 Center     Atomic      Atomic             Coordinates (Angstroms)
 Number     Number       Type             X           Y           Z
 ---------------------------------------------------------------------
      1          6           0        1.231772   -0.171464   -0.000114
      2          6           0       -0.114196    0.508598    0.000180
      3          6           0       -1.314841   -0.233589    0.000210
      4          1           0        2.035291    0.569994   -0.006500
      5          1           0        1.371411   -0.809281   -0.882949
      6          1           0        1.377819   -0.798680    0.889530
      7          1           0       -0.178162    1.512201   -0.001038
      8          1           0       -2.210885    0.235344   -0.000087
      9          1           0       -1.211883   -1.330851   -0.000616
 ---------------------------------------------------------------------

 SCF Done:  E(RwB97X) =  -117.846666948     A.U. after   14 cycles

 The electronic state is 1-A.
 Alpha  occ. eigenvalues --  -10.27143 -10.26228 -10.25772  -0.90335  -0.80206
 Alpha  occ. eigenvalues --   -0.68190  -0.57825  -0.51562  -0.51529  -0.46456
 Alpha  occ. eigenvalues --   -0.45787  -0.33354
 Alpha virt. eigenvalues --    0.09760   0.21323   0.23634   0.25199   0.29015
 Alpha virt. eigenvalues --    0.29943   0.30526   0.38943   0.41619   0.61245
 Alpha virt. eigenvalues --    0.63055   0.66445   0.69992   0.72467   0.76468

 Mulliken charges:
               1
     1  C   -0.518306
     2  C   -0.115643
     3  C   -0.360791
     4  H    0.162579
     5  H    0.177230
     6  H    0.177249
     7  H    0.161670
     8  H    0.166383
     9  H    0.149630
 Sum of Mulliken charges =  -0.00000

 Dipole moment (field-independent basis, Debye):
    X=              0.3510    Y=              0.0724    Z=             -0.0011  Tot=              0.3584
 Quadrupole moment (field-independent basis, Debye-Ang):
   XX=            -18.8159   YY=            -18.4152   ZZ=            -21.3543
   XY=             -0.1300   XZ=              0.0037   YZ=              0.0003

 Normal termination of Gaussian 16 at Wed Jun  5 16:58:28 2019.
