 Gaussian 16, Revision A.03,
 Gaussian 16:  ES64L-G16RevA.03 25-Dec-2016

 ----------------
 # 6-31g(d) wb97x
 ----------------

 ---------------------
 tmpdir/M2_ref_118.gjf
 ---------------------
 Symbolic Z-matrix:
 Charge =  0 Multiplicity = 1

                         Standard orientation:
 ---------------------------------------------------------------------
 Center     Atomic      Atomic             Coordinates (Angstroms)
 Number     Number       Type             X           Y           Z
 ---------------------------------------------------------------------
      1          6           0        0.545131   -0.015120   -0.000479
      2          1           0        1.092023    0.925390    0.000948
      3          8           0       -0.678346    0.005240    0.000109
      4          1           0        1.063956   -0.876590    0.001055
 ---------------------------------------------------------------------

 SCF Done:  E(RwB97X) =  -114.458513681     A.U. after   13 cycles

 The electronic state is 1-A.
 Alpha  occ. eigenvalues --  -19.23078 -10.35914  -1.17239  -0.77434  -0.62048
 Alpha  occ. eigenvalues --   -0.55140  -0.49646  -0.36896
 Alpha virt. eigenvalues --    0.05627   0.21911   0.29756   0.31690   0.62126
 Alpha virt. eigenvalues --    0.70970   0.73973   0.78975   0.96397   0.97419
 Alpha virt. eigenvalues --    1.06322   1.07877   1.17744   1.48482   1.60890

 Mulliken charges:
               1
     1  C    0.056651
     2  H    0.135212
     3  O   -0.348358
     4  H    0.156494
 Sum of Mulliken charges =   0.00000

 Dipole moment (field-independent basis, Debye):
    X=              2.4399    Y=             -0.1112    Z=              0.0002  Tot=              2.4425
 Quadrupole moment (field-independent basis, Debye-Ang):
   XX=            -11.7512   YY=            -11.2882   ZZ=            -11.3299
   XY=             -0.0979   XZ=              0.0008   YZ=              0.0001

 Normal termination of Gaussian 16 at Wed Jun  5 16:58:05 2019.
