 Gaussian 16, Revision A.03,
 Gaussian 16:  ES64L-G16RevA.03 25-Dec-2016

 ----------------
 # 6-31g(d) wb97x
 ----------------

 -------------------
 tmpdir/M2_ref_6.gjf
 -------------------
 Symbolic Z-matrix:
 Charge =  0 Multiplicity = 1

                         Standard orientation:
 ---------------------------------------------------------------------
 Center     Atomic      Atomic             Coordinates (Angstroms)
 Number     Number       Type             X           Y           Z
 ---------------------------------------------------------------------
      1          1           0       -1.021808   -0.014518    1.072699
      2          6           0       -0.706803   -0.000056    0.011578
      3          7           0        0.744227    0.001510   -0.112506
      4          1           0       -1.100823   -0.903025   -0.469754
      5          1           0       -1.132003    0.891588   -0.475978
      6          1           0        1.127702    0.851445    0.302843
      7          1           0        1.158164   -0.835724    0.288266
 ---------------------------------------------------------------------

 SCF Done:  E(RwB97X) =  -95.8214243705     A.U. after   13 cycles

 The electronic state is 1-A.
 Alpha  occ. eigenvalues --  -14.37992 -10.28047  -0.99333  -0.77353  -0.60136
 Alpha  occ. eigenvalues --   -0.53514  -0.50500  -0.47036  -0.32130
 Alpha virt. eigenvalues --    0.18419   0.24213   0.25465   0.27604   0.29037
 Alpha virt. eigenvalues --    0.34125   0.66049   0.67726   0.69742   0.84777
 Alpha virt. eigenvalues --    0.87480   0.89510   0.97759   1.02438   1.04634

 Mulliken charges:
               1
     1  H    0.128363
     2  C   -0.327431
     3  N   -0.743229
     4  H    0.162320
     5  H    0.162482
     6  H    0.307431
     7  H    0.310065
 Sum of Mulliken charges =   0.00000

 Dipole moment (field-independent basis, Debye):
    X=             -0.1608    Y=             -0.0118    Z=              1.3483  Tot=              1.3580
 Quadrupole moment (field-independent basis, Debye-Ang):
   XX=            -13.6089   YY=            -12.1148   ZZ=            -15.2743
   XY=             -0.0726   XZ=              2.0382   YZ=              0.0180

 Normal termination of Gaussian 16 at Wed Jun  5 16:57:15 2019.
