 Gaussian 16, Revision A.03,
 Gaussian 16:  ES64L-G16RevA.03 25-Dec-2016

 ----------------
 # 6-31g(d) wb97x
 ----------------

 --------------------
 tmpdir/M2_ref_87.gjf
 --------------------
 Symbolic Z-matrix:
 Charge =  0 Multiplicity = 1

                         Standard orientation:
 ---------------------------------------------------------------------
 Center     Atomic      Atomic             Coordinates (Angstroms)
 Number     Number       Type             X           Y           Z
 ---------------------------------------------------------------------
      1          6           0        0.791607    0.483845    0.003781
      2          6           0       -0.588824    0.635477   -0.004873
      3          6           0       -1.419817   -0.484072    0.005187
      4          8           0        1.301753   -0.635318   -0.003089
      5          1           0        1.430705    1.364800    0.015657
      6          1           0       -1.045460    1.621104   -0.011297
      7          1           0       -1.003680   -1.405758   -0.002383
      8          1           0       -2.493376   -0.309105   -0.001835
 ---------------------------------------------------------------------

 SCF Done:  E(RwB97X) =  -191.837062940     A.U. after   15 cycles

 The electronic state is 1-A.
 Alpha  occ. eigenvalues --  -19.20482 -10.35056 -10.30083 -10.28719  -1.15743
 Alpha  occ. eigenvalues --   -0.92333  -0.79598  -0.66446  -0.63536  -0.55508
 Alpha  occ. eigenvalues --   -0.52367  -0.50467  -0.49380  -0.37051  -0.35706
 Alpha virt. eigenvalues --    0.00963   0.17431   0.20170   0.23896   0.26958
 Alpha virt. eigenvalues --    0.30418   0.34819   0.40913   0.46477   0.61980
 Alpha virt. eigenvalues --    0.63186   0.68524   0.68806   0.70673   0.74448

 Mulliken charges:
               1
     1  C    0.212540
     2  C   -0.196554
     3  C   -0.297864
     4  O   -0.418402
     5  H    0.135045
     6  H    0.168961
     7  H    0.214441
     8  H    0.181833
 Sum of Mulliken charges =  -0.00000

 Dipole moment (field-independent basis, Debye):
    X=             -2.1811    Y=              1.7252    Z=              0.0050  Tot=              2.7809
 Quadrupole moment (field-independent basis, Debye-Ang):
   XX=            -23.2655   YY=            -21.8556   ZZ=            -24.3059
   XY=              3.0241   XZ=              0.0301   YZ=             -0.0058

 Normal termination of Gaussian 16 at Wed Jun  5 16:57:47 2019.
