 Gaussian 16, Revision A.03,
 Gaussian 16:  ES64L-G16RevA.03 25-Dec-2016

 ----------------
 # 6-31g(d) wb97x
 ----------------

 ---------------------
 tmpdir/M2_ref_116.gjf
 ---------------------
 Symbolic Z-matrix:
 Charge =  0 Multiplicity = 1

                         Standard orientation:
 ---------------------------------------------------------------------
 Center     Atomic      Atomic             Coordinates (Angstroms)
 Number     Number       Type             X           Y           Z
 ---------------------------------------------------------------------
      1          6           0        0.794895    0.480139   -0.004590
      2          6           0       -0.588218    0.644933   -0.000516
      3          6           0       -1.404525   -0.477593    0.001779
      4          1           0        1.418045    1.400348    0.023146
      5          8           0        1.288481   -0.645924    0.000235
      6          1           0       -1.025561    1.641175   -0.007187
      7          1           0       -2.484826   -0.348754    0.003682
      8          1           0       -1.028418   -1.410247   -0.001560
 ---------------------------------------------------------------------

 SCF Done:  E(RwB97X) =  -191.837662507     A.U. after   15 cycles

 The electronic state is 1-A.
 Alpha  occ. eigenvalues --  -19.20631 -10.35356 -10.29942 -10.28747  -1.15824
 Alpha  occ. eigenvalues --   -0.92355  -0.79603  -0.66417  -0.63127  -0.55786
 Alpha  occ. eigenvalues --   -0.52020  -0.50522  -0.49556  -0.37145  -0.35759
 Alpha virt. eigenvalues --    0.01051   0.17358   0.20117   0.23715   0.26727
 Alpha virt. eigenvalues --    0.30373   0.35123   0.41027   0.46094   0.61965
 Alpha virt. eigenvalues --    0.63657   0.68751   0.68821   0.70317   0.74312

 Mulliken charges:
               1
     1  C    0.215703
     2  C   -0.194914
     3  C   -0.296863
     4  H    0.130164
     5  O   -0.417106
     6  H    0.170549
     7  H    0.178111
     8  H    0.214357
 Sum of Mulliken charges =  -0.00000

 Dipole moment (field-independent basis, Debye):
    X=             -2.1647    Y=              1.6980    Z=             -0.0047  Tot=              2.7512
 Quadrupole moment (field-independent basis, Debye-Ang):
   XX=            -23.3868   YY=            -21.7480   ZZ=            -24.3078
   XY=              3.1312   XZ=              0.0058   YZ=             -0.0027

 Normal termination of Gaussian 16 at Wed Jun  5 16:57:58 2019.
