 Gaussian 16, Revision A.03,
 Gaussian 16:  ES64L-G16RevA.03 25-Dec-2016

 ----------------
 # 6-31g(d) wb97x
 ----------------

 ---------------------
 tmpdir/M2_ref_174.gjf
 ---------------------
 Symbolic Z-matrix:
 Charge =  0 Multiplicity = 1

                         Standard orientation:
 ---------------------------------------------------------------------
 Center     Atomic      Atomic             Coordinates (Angstroms)
 Number     Number       Type             X           Y           Z
 ---------------------------------------------------------------------
      1          6           0        0.550045   -0.014127   -0.000252
      2          1           0        1.121624    0.908214    0.000516
      3          8           0       -0.679795    0.009951    0.000056
      4          1           0        1.016468   -0.903064    0.000548
 ---------------------------------------------------------------------

 SCF Done:  E(RwB97X) =  -114.457589446     A.U. after   14 cycles

 The electronic state is 1-A.
 Alpha  occ. eigenvalues --  -19.23005 -10.35896  -1.16871  -0.77371  -0.62238
 Alpha  occ. eigenvalues --   -0.54904  -0.49387  -0.36887
 Alpha virt. eigenvalues --    0.05492   0.21883   0.29659   0.31682   0.62198
 Alpha virt. eigenvalues --    0.70606   0.74343   0.78175   0.96291   0.98187
 Alpha virt. eigenvalues --    1.06396   1.07911   1.17826   1.48260   1.60875

 Mulliken charges:
               1
     1  C    0.054931
     2  H    0.140490
     3  O   -0.352508
     4  H    0.157087
 Sum of Mulliken charges =  -0.00000

 Dipole moment (field-independent basis, Debye):
    X=              2.4643    Y=             -0.1076    Z=              0.0001  Tot=              2.4667
 Quadrupole moment (field-independent basis, Debye-Ang):
   XX=            -11.7620   YY=            -11.2352   ZZ=            -11.3431
   XY=             -0.0150   XZ=              0.0004   YZ=              0.0000

 Normal termination of Gaussian 16 at Wed Jun  5 16:59:06 2019.
