 Gaussian 16, Revision A.03,
 Gaussian 16:  ES64L-G16RevA.03 25-Dec-2016

 ----------------
 # 6-31g(d) wb97x
 ----------------

 ---------------------
 tmpdir/M2_ref_194.gjf
 ---------------------
 Symbolic Z-matrix:
 Charge =  0 Multiplicity = 1

                         Standard orientation:
 ---------------------------------------------------------------------
 Center     Atomic      Atomic             Coordinates (Angstroms)
 Number     Number       Type             X           Y           Z
 ---------------------------------------------------------------------
      1          7           0        0.692019   -0.136528   -0.001200
      2          6           0       -0.627869    0.041523   -0.002988
      3          1           0       -1.223182   -0.871159    0.012073
      4          1           0        1.225319    0.631249    0.010723
      5          1           0       -1.079052    0.946463    0.003536
 ---------------------------------------------------------------------

 SCF Done:  E(RwB97X) =  -94.5760377109     A.U. after   14 cycles

 The electronic state is 1-A.
 Alpha  occ. eigenvalues --  -14.40063 -10.31723  -1.01368  -0.76724  -0.62015
 Alpha  occ. eigenvalues --   -0.54254  -0.41663  -0.36516
 Alpha virt. eigenvalues --    0.07282   0.22075   0.24417   0.29597   0.39682
 Alpha virt. eigenvalues --    0.65557   0.68060   0.71798   0.77406   0.84290
 Alpha virt. eigenvalues --    0.87404   0.97090   1.07212   1.09182   1.18070

 Mulliken charges:
               1
     1  N   -0.505129
     2  C   -0.157331
     3  H    0.175832
     4  H    0.318192
     5  H    0.168435
 Sum of Mulliken charges =  -0.00000

 Dipole moment (field-independent basis, Debye):
    X=             -1.2313    Y=              1.6876    Z=              0.0267  Tot=              2.0892
 Quadrupole moment (field-independent basis, Debye-Ang):
   XX=            -11.3243   YY=            -12.1057   ZZ=            -13.2817
   XY=              2.0831   XZ=              0.0084   YZ=              0.0021

 Normal termination of Gaussian 16 at Wed Jun  5 16:59:04 2019.
