 Gaussian 16, Revision A.03,
 Gaussian 16:  ES64L-G16RevA.03 25-Dec-2016

 ----------------
 # 6-31g(d) wb97x
 ----------------

 --------------------
 tmpdir/M2_ref_72.gjf
 --------------------
 Symbolic Z-matrix:
 Charge =  0 Multiplicity = 1

                         Standard orientation:
 ---------------------------------------------------------------------
 Center     Atomic      Atomic             Coordinates (Angstroms)
 Number     Number       Type             X           Y           Z
 ---------------------------------------------------------------------
      1          6           0        0.806944    0.483309   -0.004433
      2          6           0       -0.579792    0.641338   -0.003285
      3          6           0       -1.417529   -0.467008   -0.003617
      4          1           0        1.465840    1.359025    0.030661
      5          8           0        1.273920   -0.654550    0.001260
      6          1           0       -0.990199    1.647726   -0.006140
      7          1           0       -2.494534   -0.314985    0.034265
      8          1           0       -1.030210   -1.401198   -0.000857
 ---------------------------------------------------------------------

 SCF Done:  E(RwB97X) =  -191.837801790     A.U. after   15 cycles

 The electronic state is 1-A.
 Alpha  occ. eigenvalues --  -19.20503 -10.35208 -10.29921 -10.28713  -1.15813
 Alpha  occ. eigenvalues --   -0.92108  -0.79516  -0.66502  -0.63160  -0.55626
 Alpha  occ. eigenvalues --   -0.52413  -0.50474  -0.49239  -0.37009  -0.35700
 Alpha virt. eigenvalues --    0.01090   0.17300   0.20312   0.23857   0.26693
 Alpha virt. eigenvalues --    0.30460   0.34967   0.41037   0.46081   0.62014
 Alpha virt. eigenvalues --    0.63411   0.68400   0.68783   0.70755   0.74541

 Mulliken charges:
               1
     1  C    0.210743
     2  C   -0.193559
     3  C   -0.299551
     4  H    0.138127
     5  O   -0.415376
     6  H    0.165780
     7  H    0.180182
     8  H    0.213654
 Sum of Mulliken charges =   0.00000

 Dipole moment (field-independent basis, Debye):
    X=             -2.0339    Y=              1.7570    Z=              0.0223  Tot=              2.6878
 Quadrupole moment (field-independent basis, Debye-Ang):
   XX=            -23.1525   YY=            -21.8479   ZZ=            -24.3126
   XY=              3.2496   XZ=             -0.0613   YZ=             -0.0030

 Normal termination of Gaussian 16 at Wed Jun  5 16:57:45 2019.
