 Gaussian 16, Revision A.03,
 Gaussian 16:  ES64L-G16RevA.03 25-Dec-2016

 ----------------
 # 6-31g(d) wb97x
 ----------------

 ---------------------
 tmpdir/M2_ref_139.gjf
 ---------------------
 Symbolic Z-matrix:
 Charge =  0 Multiplicity = 1

                         Standard orientation:
 ---------------------------------------------------------------------
 Center     Atomic      Atomic             Coordinates (Angstroms)
 Number     Number       Type             X           Y           Z
 ---------------------------------------------------------------------
      1          6           0       -0.832022   -0.633848   -0.000869
      2          6           0        0.373152    0.072840   -0.000642
      3          7           0        1.626551   -0.555592    0.001900
      4          8           0       -1.896260   -0.018178    0.003222
      5          1           0       -0.821726   -1.711335   -0.004926
      6          8           0        0.378939    1.317240   -0.004114
      7          1           0        2.430985    0.052286    0.033535
      8          1           0        1.896676   -1.478262   -0.025705
 ---------------------------------------------------------------------

 SCF Done:  E(RwB97X) =  -283.103835089     A.U. after   17 cycles

 The electronic state is 1-A.
 Alpha  occ. eigenvalues --  -19.24769 -19.20151 -14.44985 -10.39554 -10.38007
 Alpha  occ. eigenvalues --   -1.20209  -1.15666  -1.04281  -0.86213  -0.71325
 Alpha  occ. eigenvalues --   -0.67457  -0.63669  -0.56446  -0.56104  -0.53211
 Alpha  occ. eigenvalues --   -0.47752  -0.39384  -0.38101  -0.37344
 Alpha virt. eigenvalues --   -0.00959   0.17041   0.17911   0.22037   0.23810
 Alpha virt. eigenvalues --    0.30218   0.36426   0.44870   0.52118   0.60157
 Alpha virt. eigenvalues --    0.60352   0.71263   0.71695   0.75015   0.78229

 Mulliken charges:
               1
     1  C    0.175866
     2  C    0.547548
     3  N   -0.805206
     4  O   -0.335279
     5  H    0.154143
     6  O   -0.458109
     7  H    0.369445
     8  H    0.351593
 Sum of Mulliken charges =   0.00000

 Dipole moment (field-independent basis, Debye):
    X=              3.3051    Y=             -4.2505    Z=             -0.0012  Tot=              5.3843
 Quadrupole moment (field-independent basis, Debye-Ang):
   XX=            -26.2548   YY=            -27.9042   ZZ=            -27.8227
   XY=             -1.2837   XZ=              0.0672   YZ=              0.1123

 Normal termination of Gaussian 16 at Wed Jun  5 16:58:33 2019.
