 Gaussian 16, Revision A.03,
 Gaussian 16:  ES64L-G16RevA.03 25-Dec-2016

 ----------------
 # 6-31g(d) wb97x
 ----------------

 ---------------------
 tmpdir/M2_ref_185.gjf
 ---------------------
 Symbolic Z-matrix:
 Charge =  0 Multiplicity = 1

                         Standard orientation:
 ---------------------------------------------------------------------
 Center     Atomic      Atomic             Coordinates (Angstroms)
 Number     Number       Type             X           Y           Z
 ---------------------------------------------------------------------
      1          6           0        0.630610    0.491795    0.001442
      2          7           0       -0.703648    0.542007   -0.001622
      3          8           0        1.270910   -0.554234   -0.000661
      4          1           0        1.141483    1.453798    0.001420
      5          8           0       -1.270861   -0.470593    0.000821
 ---------------------------------------------------------------------

 SCF Done:  E(RwB97X) =  -243.698578051     A.U. after   19 cycles

 The electronic state is 1-A.
 Alpha  occ. eigenvalues --  -19.32003 -19.27168 -14.54024 -10.40650  -1.36734
 Alpha  occ. eigenvalues --   -1.20958  -0.96608  -0.72230  -0.68057  -0.63837
 Alpha  occ. eigenvalues --   -0.62132  -0.55445  -0.51381  -0.42907  -0.35098
 Alpha virt. eigenvalues --   -0.06770   0.11696   0.21816   0.30458   0.38343
 Alpha virt. eigenvalues --    0.49192   0.59302   0.64944   0.71287   0.77909
 Alpha virt. eigenvalues --    0.79340   0.80091   0.84610   0.90361   0.93875

 Mulliken charges:
               1
     1  C    0.282583
     2  N    0.039597
     3  O   -0.314356
     4  H    0.182774
     5  O   -0.190598
 Sum of Mulliken charges =  -0.00000

 Dipole moment (field-independent basis, Debye):
    X=              0.6149    Y=              1.8449    Z=              0.0083  Tot=              1.9447
 Quadrupole moment (field-independent basis, Debye-Ang):
   XX=            -24.5227   YY=            -21.8977   ZZ=            -19.5772
   XY=              2.8073   XZ=             -0.0066   YZ=              0.0142

 Normal termination of Gaussian 16 at Wed Jun  5 16:58:31 2019.
