 Gaussian 16, Revision A.03,
 Gaussian 16:  ES64L-G16RevA.03 25-Dec-2016

 ----------------
 # 6-31g(d) wb97x
 ----------------

 ---------------------
 tmpdir/M2_ref_171.gjf
 ---------------------
 Symbolic Z-matrix:
 Charge =  0 Multiplicity = 1

                         Standard orientation:
 ---------------------------------------------------------------------
 Center     Atomic      Atomic             Coordinates (Angstroms)
 Number     Number       Type             X           Y           Z
 ---------------------------------------------------------------------
      1          6           0       -0.690459    0.352322    0.121364
      2          6           0        0.551391   -0.460860    0.093533
      3          6           0        1.792077    0.151419   -0.086857
      4          1           0       -0.574473    1.371080    0.362717
      5          8           0       -1.795315   -0.121274   -0.129980
      6          1           0        0.536479   -1.464240    0.218151
      7          1           0        1.865348    1.226496   -0.214358
      8          1           0        2.617111   -0.420431   -0.094911
 ---------------------------------------------------------------------

 SCF Done:  E(RwB97X) =  -191.835380405     A.U. after   16 cycles

 The electronic state is 1-A.
 Alpha  occ. eigenvalues --  -19.21511 -10.36169 -10.30022 -10.29226  -1.16140
 Alpha  occ. eigenvalues --   -0.92524  -0.77923  -0.70824  -0.60158  -0.58001
 Alpha  occ. eigenvalues --   -0.52577  -0.51670  -0.49345  -0.37786  -0.35990
 Alpha virt. eigenvalues --    0.02114   0.13970   0.21361   0.23590   0.25902
 Alpha virt. eigenvalues --    0.30232   0.35741   0.39541   0.44098   0.61643
 Alpha virt. eigenvalues --    0.63622   0.65202   0.68954   0.70852   0.74149

 Mulliken charges:
               1
     1  C    0.216374
     2  C   -0.173345
     3  C   -0.344533
     4  H    0.142363
     5  O   -0.401922
     6  H    0.189725
     7  H    0.180315
     8  H    0.191024
 Sum of Mulliken charges =  -0.00000

 Dipole moment (field-independent basis, Debye):
    X=              3.0916    Y=              0.7102    Z=              0.4723  Tot=              3.2071
 Quadrupole moment (field-independent basis, Debye-Ang):
   XX=            -26.4229   YY=            -21.0205   ZZ=            -24.3241
   XY=             -0.9908   XZ=             -0.9761   YZ=             -0.3082

 Normal termination of Gaussian 16 at Wed Jun  5 16:58:37 2019.
