 Gaussian 16, Revision A.03,
 Gaussian 16:  ES64L-G16RevA.03 25-Dec-2016

 ----------------
 # 6-31g(d) wb97x
 ----------------

 ---------------------
 tmpdir/M2_ref_101.gjf
 ---------------------
 Symbolic Z-matrix:
 Charge =  0 Multiplicity = 1

                         Standard orientation:
 ---------------------------------------------------------------------
 Center     Atomic      Atomic             Coordinates (Angstroms)
 Number     Number       Type             X           Y           Z
 ---------------------------------------------------------------------
      1          6           0       -1.253417    0.297644   -0.060262
      2          7           0       -0.031170    0.915904   -0.065152
      3          6           0        1.243145    0.332556    0.125169
      4          1           0       -2.102954    0.961175   -0.205881
      5          8           0       -1.411468   -0.902032    0.108380
      6          1           0       -0.046461    1.923775   -0.019418
      7          8           0        1.467197   -0.849498   -0.128240
      8          1           0        1.983402    0.934761    0.450810
 ---------------------------------------------------------------------

 SCF Done:  E(RwB97X) =  -283.127574589     A.U. after   17 cycles

 The electronic state is 1-A.
 Alpha  occ. eigenvalues --  -19.21887 -19.20843 -14.47912 -10.39928 -10.39726
 Alpha  occ. eigenvalues --   -1.19394  -1.16349  -1.07361  -0.83320  -0.71236
 Alpha  occ. eigenvalues --   -0.70315  -0.62426  -0.56426  -0.54959  -0.53259
 Alpha  occ. eigenvalues --   -0.48852  -0.40121  -0.39219  -0.35949
 Alpha virt. eigenvalues --    0.04732   0.13336   0.15694   0.22280   0.24400
 Alpha virt. eigenvalues --    0.32674   0.34173   0.40084   0.44572   0.59431
 Alpha virt. eigenvalues --    0.60711   0.65189   0.69866   0.73022   0.74886

 Mulliken charges:
               1
     1  C    0.339867
     2  N   -0.598324
     3  C    0.348838
     4  H    0.152862
     5  O   -0.391033
     6  H    0.351808
     7  O   -0.375608
     8  H    0.171590
 Sum of Mulliken charges =  -0.00000

 Dipole moment (field-independent basis, Debye):
    X=              0.1319    Y=              5.8258    Z=              0.3664  Tot=              5.8388
 Quadrupole moment (field-independent basis, Debye-Ang):
   XX=            -27.9959   YY=            -26.5149   ZZ=            -27.7102
   XY=             -0.0107   XZ=              1.5263   YZ=              0.2596

 Normal termination of Gaussian 16 at Wed Jun  5 16:57:52 2019.
