 Gaussian 16, Revision A.03,
 Gaussian 16:  ES64L-G16RevA.03 25-Dec-2016

 ----------------
 # 6-31g(d) wb97x
 ----------------

 ---------------------
 tmpdir/M2_ref_168.gjf
 ---------------------
 Symbolic Z-matrix:
 Charge =  0 Multiplicity = 1

                         Standard orientation:
 ---------------------------------------------------------------------
 Center     Atomic      Atomic             Coordinates (Angstroms)
 Number     Number       Type             X           Y           Z
 ---------------------------------------------------------------------
      1          6           0        1.807947    0.138524   -0.083156
      2          6           0        0.549085   -0.429356    0.099010
      3          6           0       -0.695708    0.379516    0.120186
      4          1           0        2.589714   -0.495168   -0.076148
      5          1           0        1.947423    1.200395   -0.247312
      6          1           0        0.430946   -1.468805    0.222140
      7          8           0       -1.780692   -0.141432   -0.133805
      8          1           0       -0.690487    1.362935    0.355521
 ---------------------------------------------------------------------

 SCF Done:  E(RwB97X) =  -191.833831388     A.U. after   16 cycles

 The electronic state is 1-A.
 Alpha  occ. eigenvalues --  -19.21181 -10.35491 -10.29966 -10.29632  -1.15968
 Alpha  occ. eigenvalues --   -0.92117  -0.78003  -0.70870  -0.60338  -0.57865
 Alpha  occ. eigenvalues --   -0.52423  -0.51269  -0.49163  -0.37721  -0.35767
 Alpha virt. eigenvalues --    0.02180   0.14058   0.21737   0.23082   0.26017
 Alpha virt. eigenvalues --    0.30448   0.35979   0.39100   0.43729   0.61708
 Alpha virt. eigenvalues --    0.63446   0.64291   0.69035   0.72065   0.74395

 Mulliken charges:
               1
     1  C   -0.341064
     2  C   -0.184353
     3  C    0.215147
     4  H    0.189315
     5  H    0.184602
     6  H    0.193359
     7  O   -0.406228
     8  H    0.149223
 Sum of Mulliken charges =  -0.00000

 Dipole moment (field-independent basis, Debye):
    X=              2.9945    Y=              0.8465    Z=              0.4689  Tot=              3.1470
 Quadrupole moment (field-independent basis, Debye-Ang):
   XX=            -26.4361   YY=            -20.8368   ZZ=            -24.3232
   XY=             -1.0905   XZ=             -1.0840   YZ=             -0.3564

 Normal termination of Gaussian 16 at Wed Jun  5 16:59:05 2019.
