 Gaussian 16, Revision A.03,
 Gaussian 16:  ES64L-G16RevA.03 25-Dec-2016

 ----------------
 # 6-31g(d) wb97x
 ----------------

 ---------------------
 tmpdir/M2_ref_170.gjf
 ---------------------
 Symbolic Z-matrix:
 Charge =  0 Multiplicity = 1

                         Standard orientation:
 ---------------------------------------------------------------------
 Center     Atomic      Atomic             Coordinates (Angstroms)
 Number     Number       Type             X           Y           Z
 ---------------------------------------------------------------------
      1          6           0        0.744486    0.476529   -0.006075
      2          6           0       -0.652179    0.501907   -0.001387
      3          1           0        1.329341    1.378175   -0.001537
      4          6           0        1.370045   -0.770581    0.004927
      5          6           0       -1.486245   -0.679479   -0.001731
      6          1           0       -1.185980    1.451568    0.027135
 ---------------------------------------------------------------------

 SCF Done:  E(RwB97X) =  -153.239049344     A.U. after   20 cycles

 The electronic state is 1-A.
 Alpha  occ. eigenvalues --  -10.36961 -10.36493 -10.31790 -10.31132  -0.97362
 Alpha  occ. eigenvalues --   -0.84035  -0.71926  -0.60853  -0.59122  -0.46261
 Alpha  occ. eigenvalues --   -0.42501  -0.40131  -0.32873
 Alpha virt. eigenvalues --   -0.03291   0.00225   0.02012   0.16196   0.21072
 Alpha virt. eigenvalues --    0.25041   0.33829   0.45566   0.46817   0.58980
 Alpha virt. eigenvalues --    0.61077   0.62411   0.66146   0.66625   0.69166

 Mulliken charges:
               1
     1  C   -0.253654
     2  C   -0.293467
     3  H    0.234170
     4  C    0.037575
     5  C    0.043866
     6  H    0.231509
 Sum of Mulliken charges =   0.00000

 Dipole moment (field-independent basis, Debye):
    X=              0.3553    Y=              3.3086    Z=              0.0246  Tot=              3.3278
 Quadrupole moment (field-independent basis, Debye-Ang):
   XX=            -24.3984   YY=            -23.3729   ZZ=            -25.6033
   XY=              0.0024   XZ=             -0.0873   YZ=              0.0725

 Normal termination of Gaussian 16 at Wed Jun  5 16:58:27 2019.
