 Gaussian 16, Revision A.03,
 Gaussian 16:  ES64L-G16RevA.03 25-Dec-2016

 ----------------
 # 6-31g(d) wb97x
 ----------------

 ---------------------
 tmpdir/M2_ref_167.gjf
 ---------------------
 Symbolic Z-matrix:
 Charge =  0 Multiplicity = 1

                         Standard orientation:
 ---------------------------------------------------------------------
 Center     Atomic      Atomic             Coordinates (Angstroms)
 Number     Number       Type             X           Y           Z
 ---------------------------------------------------------------------
      1          7           0        0.743245   -0.768133    0.079757
      2          6           0        0.078922    0.394693    0.029975
      3          6           0       -1.399477    0.310829    0.137373
      4          8           0        1.898818   -0.721080   -0.004027
      5          8           0        0.671320    1.461743   -0.106560
      6          8           0       -1.985316   -0.734268   -0.141291
      7          1           0       -1.957953    1.092644    0.452640
 ---------------------------------------------------------------------

 SCF Done:  E(RwB97X) =  -356.908939699     A.U. after   30 cycles

 The electronic state is 1-A.
 Alpha  occ. eigenvalues --  -19.37078 -19.26698 -19.23515 -14.58644 -10.42745
 Alpha  occ. eigenvalues --  -10.40098  -1.40406  -1.21607  -1.19293  -0.98404
 Alpha  occ. eigenvalues --   -0.83269  -0.73387  -0.69517  -0.66937  -0.63082
 Alpha  occ. eigenvalues --   -0.59846  -0.56441  -0.55021  -0.49473  -0.43757
 Alpha  occ. eigenvalues --   -0.39255  -0.33533
 Alpha virt. eigenvalues --   -0.12404  -0.00638   0.14158   0.23200   0.29059
 Alpha virt. eigenvalues --    0.33884   0.38838   0.46290   0.47632   0.59000
 Alpha virt. eigenvalues --    0.63003   0.67239   0.69797   0.71018   0.74901

 Mulliken charges:
               1
     1  N    0.024200
     2  C    0.465036
     3  C    0.201520
     4  O   -0.091404
     5  O   -0.449429
     6  O   -0.355782
     7  H    0.205859
 Sum of Mulliken charges =  -0.00000

 Dipole moment (field-independent basis, Debye):
    X=             -0.6195    Y=             -0.2757    Z=              0.8739  Tot=              1.1062
 Quadrupole moment (field-independent basis, Debye-Ang):
   XX=            -34.2154   YY=            -34.3672   ZZ=            -30.9977
   XY=             -6.1159   XZ=             -0.9912   YZ=              0.1448

 Normal termination of Gaussian 16 at Wed Jun  5 16:58:56 2019.
