 Gaussian 16, Revision A.03,
 Gaussian 16:  ES64L-G16RevA.03 25-Dec-2016

 ----------------
 # 6-31g(d) wb97x
 ----------------

 ---------------------
 tmpdir/M2_ref_144.gjf
 ---------------------
 Symbolic Z-matrix:
 Charge =  0 Multiplicity = 1

                         Standard orientation:
 ---------------------------------------------------------------------
 Center     Atomic      Atomic             Coordinates (Angstroms)
 Number     Number       Type             X           Y           Z
 ---------------------------------------------------------------------
      1          6           0       -1.036889   -0.439631    0.018577
      2          7           0       -0.032675    0.538862    0.011537
      3          6           0        1.339236    0.471197    0.000571
      4          1           0       -0.839475   -1.430959    0.051568
      5          8           0       -2.210403   -0.027352   -0.019752
      6          1           0       -0.343947    1.498411    0.008780
      7          8           0        1.935275   -0.654428   -0.012010
      8          1           0        1.799085    1.425356   -0.001893
 ---------------------------------------------------------------------

 SCF Done:  E(RwB97X) =  -283.127083334     A.U. after   15 cycles

 The electronic state is 1-A.
 Alpha  occ. eigenvalues --  -19.22426 -19.21917 -14.48525 -10.41072 -10.40745
 Alpha  occ. eigenvalues --   -1.19296  -1.15938  -1.06972  -0.83647  -0.75310
 Alpha  occ. eigenvalues --   -0.67393  -0.64118  -0.56808  -0.55193  -0.53683
 Alpha  occ. eigenvalues --   -0.49193  -0.40572  -0.39015  -0.37545
 Alpha virt. eigenvalues --    0.02997   0.12165   0.16180   0.22744   0.25108
 Alpha virt. eigenvalues --    0.30459   0.33445   0.37433   0.44391   0.57700
 Alpha virt. eigenvalues --    0.58481   0.65746   0.68120   0.72939   0.73895

 Mulliken charges:
               1
     1  C    0.374689
     2  N   -0.579543
     3  C    0.335887
     4  H    0.210920
     5  O   -0.433879
     6  H    0.365882
     7  O   -0.451699
     8  H    0.177744
 Sum of Mulliken charges =  -0.00000

 Dipole moment (field-independent basis, Debye):
    X=              0.6590    Y=              2.3583    Z=              0.1109  Tot=              2.4512
 Quadrupole moment (field-independent basis, Debye-Ang):
   XX=            -39.7533   YY=            -23.2148   ZZ=            -27.7647
   XY=              5.3726   XZ=             -0.1054   YZ=             -0.0624

 Normal termination of Gaussian 16 at Wed Jun  5 16:58:32 2019.
