 Gaussian 16, Revision A.03,
 Gaussian 16:  ES64L-G16RevA.03 25-Dec-2016

 ----------------
 # 6-31g(d) wb97x
 ----------------

 ---------------------
 tmpdir/M2_ref_162.gjf
 ---------------------
 Symbolic Z-matrix:
 Charge =  0 Multiplicity = 1

                         Standard orientation:
 ---------------------------------------------------------------------
 Center     Atomic      Atomic             Coordinates (Angstroms)
 Number     Number       Type             X           Y           Z
 ---------------------------------------------------------------------
      1          6           0       -0.649204    0.520248   -0.003882
      2          6           0        0.740949    0.505914   -0.001220
      3          1           0        1.311863    1.426483    0.022882
      4          8           0       -1.358865   -0.531081    0.003142
      5          1           0       -1.194211    1.463541   -0.006743
      6          8           0        1.275350   -0.599793   -0.001333
 ---------------------------------------------------------------------

 SCF Done:  E(RwB97X) =  -227.731835590     A.U. after   16 cycles

 The electronic state is 1-A.
 Alpha  occ. eigenvalues --  -19.25734 -19.25365 -10.38475 -10.38219  -1.21135
 Alpha  occ. eigenvalues --   -1.16091  -0.88096  -0.69698  -0.66839  -0.57965
 Alpha  occ. eigenvalues --   -0.55905  -0.54736  -0.47100  -0.40846  -0.38355
 Alpha virt. eigenvalues --   -0.04214   0.13669   0.20458   0.23651   0.26514
 Alpha virt. eigenvalues --    0.41412   0.48334   0.58923   0.60823   0.67590
 Alpha virt. eigenvalues --    0.68071   0.76230   0.77457   0.86383   0.92943

 Mulliken charges:
               1
     1  C    0.174727
     2  C    0.175229
     3  H    0.169891
     4  O   -0.349314
     5  H    0.155899
     6  O   -0.326432
 Sum of Mulliken charges =  -0.00000

 Dipole moment (field-independent basis, Debye):
    X=              0.4455    Y=              3.7441    Z=             -0.0023  Tot=              3.7705
 Quadrupole moment (field-independent basis, Debye-Ang):
   XX=            -25.4492   YY=            -21.1016   ZZ=            -20.8946
   XY=              0.3291   XZ=              0.0246   YZ=              0.0081

 Normal termination of Gaussian 16 at Wed Jun  5 16:58:25 2019.
