 Gaussian 16, Revision A.03,
 Gaussian 16:  ES64L-G16RevA.03 25-Dec-2016

 ----------------
 # 6-31g(d) wb97x
 ----------------

 ---------------------
 tmpdir/M2_ref_137.gjf
 ---------------------
 Symbolic Z-matrix:
 Charge =  0 Multiplicity = 1

                         Standard orientation:
 ---------------------------------------------------------------------
 Center     Atomic      Atomic             Coordinates (Angstroms)
 Number     Number       Type             X           Y           Z
 ---------------------------------------------------------------------
      1          6           0       -0.181566    0.467678   -0.003529
      2          7           0        1.085121   -0.133514    0.000086
      3          1           0       -0.315233    1.470114   -0.010423
      4          8           0       -1.158860   -0.302663    0.003615
      5          1           0        1.101090   -1.141861   -0.024643
      6          1           0        1.978570    0.221578    0.026717
 ---------------------------------------------------------------------

 SCF Done:  E(RwB97X) =  -169.825259306     A.U. after   15 cycles

 The electronic state is 1-A.
 Alpha  occ. eigenvalues --  -19.18149 -14.43082 -10.37613  -1.14624  -1.02088
 Alpha  occ. eigenvalues --   -0.76042  -0.67186  -0.59562  -0.51400  -0.50238
 Alpha  occ. eigenvalues --   -0.36334  -0.35679
 Alpha virt. eigenvalues --    0.10981   0.19027   0.23479   0.26781   0.35393
 Alpha virt. eigenvalues --    0.41980   0.64565   0.64619   0.74865   0.77922
 Alpha virt. eigenvalues --    0.82879   0.84335   0.98764   1.00375   1.02543

 Mulliken charges:
               1
     1  C    0.357164
     2  N   -0.763084
     3  H    0.166939
     4  O   -0.465687
     5  H    0.358016
     6  H    0.346651
 Sum of Mulliken charges =  -0.00000

 Dipole moment (field-independent basis, Debye):
    X=              3.5199    Y=              1.1926    Z=             -0.0088  Tot=              3.7165
 Quadrupole moment (field-independent basis, Debye-Ang):
   XX=            -17.0236   YY=            -14.6038   ZZ=            -18.4154
   XY=             -1.8762   XZ=              0.0716   YZ=              0.0738

 Normal termination of Gaussian 16 at Wed Jun  5 16:58:10 2019.
