 Gaussian 16, Revision A.03,
 Gaussian 16:  ES64L-G16RevA.03 25-Dec-2016

 ----------------
 # 6-31g(d) wb97x
 ----------------

 --------------------
 tmpdir/M2_ref_77.gjf
 --------------------
 Symbolic Z-matrix:
 Charge =  0 Multiplicity = 1

                         Standard orientation:
 ---------------------------------------------------------------------
 Center     Atomic      Atomic             Coordinates (Angstroms)
 Number     Number       Type             X           Y           Z
 ---------------------------------------------------------------------
      1          6           0        1.418165   -0.463819   -0.000481
      2          6           0        0.581734    0.645505   -0.004636
      3          6           0       -0.805997    0.484464   -0.007658
      4          1           0        1.033149   -1.397914   -0.003426
      5          1           0        2.498485   -0.344818    0.001983
      6          1           0        1.022801    1.639650    0.035650
      7          8           0       -1.276273   -0.651175    0.005054
      8          1           0       -1.507666    1.315584    0.002009
 ---------------------------------------------------------------------

 SCF Done:  E(RwB97X) =  -191.837412428     A.U. after   15 cycles

 The electronic state is 1-A.
 Alpha  occ. eigenvalues --  -19.20352 -10.35125 -10.29890 -10.28872  -1.15809
 Alpha  occ. eigenvalues --   -0.92089  -0.79357  -0.66796  -0.63279  -0.55444
 Alpha  occ. eigenvalues --   -0.52620  -0.50451  -0.49074  -0.37027  -0.35606
 Alpha virt. eigenvalues --    0.01145   0.17280   0.20384   0.24242   0.26475
 Alpha virt. eigenvalues --    0.30348   0.34986   0.41393   0.46194   0.62033
 Alpha virt. eigenvalues --    0.62837   0.68546   0.68802   0.70721   0.74685

 Mulliken charges:
               1
     1  C   -0.299431
     2  C   -0.196408
     3  C    0.207137
     4  H    0.212825
     5  H    0.180622
     6  H    0.167921
     7  O   -0.413676
     8  H    0.141012
 Sum of Mulliken charges =  -0.00000

 Dipole moment (field-independent basis, Debye):
    X=              2.0384    Y=              1.7437    Z=              0.0089  Tot=              2.6825
 Quadrupole moment (field-independent basis, Debye-Ang):
   XX=            -22.9593   YY=            -21.9284   ZZ=            -24.3044
   XY=             -3.2989   XZ=              0.0568   YZ=              0.0619

 Normal termination of Gaussian 16 at Wed Jun  5 16:57:48 2019.
