 Gaussian 16, Revision A.03,
 Gaussian 16:  ES64L-G16RevA.03 25-Dec-2016

 ----------------
 # 6-31g(d) wb97x
 ----------------

 ---------------------
 tmpdir/M2_ref_125.gjf
 ---------------------
 Symbolic Z-matrix:
 Charge =  0 Multiplicity = 1

                         Standard orientation:
 ---------------------------------------------------------------------
 Center     Atomic      Atomic             Coordinates (Angstroms)
 Number     Number       Type             X           Y           Z
 ---------------------------------------------------------------------
      1          6           0        0.791718   -0.634025   -0.002139
      2          6           0       -0.364563    0.136010   -0.000062
      3          6           0       -1.721276   -0.522355    0.000761
      4          8           0        1.906723   -0.129984    0.001716
      5          1           0        0.698821   -1.718008   -0.003681
      6          8           0       -0.243428    1.374519   -0.000626
      7          1           0       -1.618560   -1.610866   -0.005235
      8          1           0       -2.313768   -0.247201   -0.881822
      9          1           0       -2.308122   -0.257985    0.890658
 ---------------------------------------------------------------------

 SCF Done:  E(RwB97X) =  -267.053502372     A.U. after   15 cycles

 The electronic state is 1-A.
 Alpha  occ. eigenvalues --  -19.24755 -19.23647 -10.37821 -10.37280 -10.29599
 Alpha  occ. eigenvalues --   -1.20634  -1.16222  -0.92001  -0.82543  -0.67501
 Alpha  occ. eigenvalues --   -0.62318  -0.58528  -0.58405  -0.53484  -0.52223
 Alpha  occ. eigenvalues --   -0.52095  -0.45744  -0.39993  -0.37079
 Alpha virt. eigenvalues --   -0.02970   0.14760   0.18279   0.21410   0.26113
 Alpha virt. eigenvalues --    0.26335   0.30645   0.31345   0.44482   0.52375
 Alpha virt. eigenvalues --    0.57648   0.59741   0.66757   0.69297   0.73367

 Mulliken charges:
               1
     1  C    0.165992
     2  C    0.395150
     3  C   -0.586151
     4  O   -0.333517
     5  H    0.143109
     6  O   -0.391559
     7  H    0.172450
     8  H    0.217325
     9  H    0.217200
 Sum of Mulliken charges =  -0.00000

 Dipole moment (field-independent basis, Debye):
    X=             -2.8201    Y=             -3.1590    Z=             -0.0030  Tot=              4.2346
 Quadrupole moment (field-independent basis, Debye-Ang):
   XX=            -30.9754   YY=            -30.5433   ZZ=            -26.8475
   XY=              0.3059   XZ=             -0.0118   YZ=             -0.0009

 Normal termination of Gaussian 16 at Wed Jun  5 16:58:10 2019.
