 Gaussian 16, Revision A.03,
 Gaussian 16:  ES64L-G16RevA.03 25-Dec-2016

 ----------------
 # 6-31g(d) wb97x
 ----------------

 --------------------
 tmpdir/M2_ref_83.gjf
 --------------------
 Symbolic Z-matrix:
 Charge =  0 Multiplicity = 1

                         Standard orientation:
 ---------------------------------------------------------------------
 Center     Atomic      Atomic             Coordinates (Angstroms)
 Number     Number       Type             X           Y           Z
 ---------------------------------------------------------------------
      1          1           0        1.231465    1.448047    0.015778
      2          6           0        0.692629    0.502437    0.003750
      3          6           0       -0.696104    0.502072   -0.005100
      4          8           0        1.322202   -0.554167   -0.003115
      5          1           0       -1.257872    1.431800   -0.011529
      6          8           0       -1.316294   -0.559195    0.003596
 ---------------------------------------------------------------------

 SCF Done:  E(RwB97X) =  -227.737540594     A.U. after   14 cycles

 The electronic state is 1-A.
 Alpha  occ. eigenvalues --  -19.25495 -19.25427 -10.38093 -10.38000  -1.21568
 Alpha  occ. eigenvalues --   -1.17484  -0.87985  -0.69281  -0.67199  -0.58162
 Alpha  occ. eigenvalues --   -0.56325  -0.55158  -0.47835  -0.41067  -0.38195
 Alpha virt. eigenvalues --   -0.03771   0.14327   0.20592   0.23847   0.27209
 Alpha virt. eigenvalues --    0.41899   0.48909   0.58837   0.61204   0.67439
 Alpha virt. eigenvalues --    0.69477   0.77644   0.77918   0.86132   0.92815

 Mulliken charges:
               1
     1  H    0.154637
     2  C    0.179459
     3  C    0.175181
     4  O   -0.334094
     5  H    0.157574
     6  O   -0.332757
 Sum of Mulliken charges =  -0.00000

 Dipole moment (field-independent basis, Debye):
    X=             -0.0303    Y=              3.6362    Z=             -0.0012  Tot=              3.6364
 Quadrupole moment (field-independent basis, Debye-Ang):
   XX=            -25.4890   YY=            -21.2081   ZZ=            -20.8076
   XY=             -0.0451   XZ=              0.0279   YZ=              0.0014

 Normal termination of Gaussian 16 at Wed Jun  5 16:57:55 2019.
