 Gaussian 16, Revision A.03,
 Gaussian 16:  ES64L-G16RevA.03 25-Dec-2016

 ----------------
 # 6-31g(d) wb97x
 ----------------

 ---------------------
 tmpdir/M2_ref_158.gjf
 ---------------------
 Symbolic Z-matrix:
 Charge =  0 Multiplicity = 1

                         Standard orientation:
 ---------------------------------------------------------------------
 Center     Atomic      Atomic             Coordinates (Angstroms)
 Number     Number       Type             X           Y           Z
 ---------------------------------------------------------------------
      1          7           0       -1.423860   -0.465991    0.001750
      2          6           0       -0.627167    0.592796   -0.003762
      3          6           0        0.760419    0.507170   -0.000670
      4          1           0       -0.986415   -1.301932    0.012479
      5          1           0       -1.123071    1.562806   -0.005439
      6          1           0        1.377791    1.397207    0.024947
      7          8           0        1.237400   -0.624492   -0.002205
 ---------------------------------------------------------------------

 SCF Done:  E(RwB97X) =  -207.866444203     A.U. after   14 cycles

 The electronic state is 1-A.
 Alpha  occ. eigenvalues --  -19.23998 -14.42739 -10.37551 -10.33397  -1.19307
 Alpha  occ. eigenvalues --   -1.03979  -0.85526  -0.71004  -0.65349  -0.59656
 Alpha  occ. eigenvalues --   -0.53823  -0.53287  -0.42235  -0.40078  -0.38192
 Alpha virt. eigenvalues --   -0.01879   0.15316   0.20775   0.24296   0.25183
 Alpha virt. eigenvalues --    0.32648   0.44210   0.47852   0.60493   0.62801
 Alpha virt. eigenvalues --    0.69152   0.70015   0.73847   0.77783   0.82514

 Mulliken charges:
               1
     1  N   -0.468374
     2  C   -0.036787
     3  C    0.211663
     4  H    0.341014
     5  H    0.180388
     6  H    0.161738
     7  O   -0.389642
 Sum of Mulliken charges =  -0.00000

 Dipole moment (field-independent basis, Debye):
    X=              0.6354    Y=              2.0943    Z=              0.0210  Tot=              2.1887
 Quadrupole moment (field-independent basis, Debye-Ang):
   XX=            -28.9112   YY=            -19.5071   ZZ=            -22.6084
   XY=              2.0288   XZ=              0.0061   YZ=             -0.0197

 Normal termination of Gaussian 16 at Wed Jun  5 16:58:31 2019.
