 Gaussian 16, Revision A.03,
 Gaussian 16:  ES64L-G16RevA.03 25-Dec-2016

 ----------------
 # 6-31g(d) wb97x
 ----------------

 --------------------
 tmpdir/M2_ref_78.gjf
 --------------------
 Symbolic Z-matrix:
 Charge =  0 Multiplicity = 1

                         Standard orientation:
 ---------------------------------------------------------------------
 Center     Atomic      Atomic             Coordinates (Angstroms)
 Number     Number       Type             X           Y           Z
 ---------------------------------------------------------------------
      1          1           0        1.250272    1.440545    0.036243
      2          6           0        0.695475    0.505108   -0.004296
      3          6           0       -0.701565    0.508216   -0.007625
      4          8           0        1.312881   -0.552751   -0.000647
      5          8           0       -1.302005   -0.564312    0.004803
      6          1           0       -1.300736    1.416012    0.002037
 ---------------------------------------------------------------------

 SCF Done:  E(RwB97X) =  -227.738167354     A.U. after   16 cycles

 The electronic state is 1-A.
 Alpha  occ. eigenvalues --  -19.25361 -19.25270 -10.38088 -10.38006  -1.21666
 Alpha  occ. eigenvalues --   -1.17505  -0.87453  -0.69360  -0.67229  -0.58062
 Alpha  occ. eigenvalues --   -0.56287  -0.55110  -0.47858  -0.40896  -0.38118
 Alpha virt. eigenvalues --   -0.03507   0.14235   0.20799   0.23539   0.27288
 Alpha virt. eigenvalues --    0.41992   0.48454   0.58937   0.60947   0.67311
 Alpha virt. eigenvalues --    0.69910   0.77889   0.78418   0.86306   0.92980

 Mulliken charges:
               1
     1  H    0.153573
     2  C    0.179324
     3  C    0.168726
     4  O   -0.331675
     5  O   -0.331434
     6  H    0.161485
 Sum of Mulliken charges =  -0.00000

 Dipole moment (field-independent basis, Debye):
    X=             -0.0573    Y=              3.6609    Z=             -0.0088  Tot=              3.6614
 Quadrupole moment (field-independent basis, Debye-Ang):
   XX=            -25.2924   YY=            -21.2387   ZZ=            -20.8100
   XY=             -0.1077   XZ=              0.0272   YZ=              0.0128

 Normal termination of Gaussian 16 at Wed Jun  5 16:57:56 2019.
