 Gaussian 16, Revision A.03,
 Gaussian 16:  ES64L-G16RevA.03 25-Dec-2016

 ----------------
 # 6-31g(d) wb97x
 ----------------

 ---------------------
 tmpdir/M2_ref_183.gjf
 ---------------------
 Symbolic Z-matrix:
 Charge =  0 Multiplicity = 1

                         Standard orientation:
 ---------------------------------------------------------------------
 Center     Atomic      Atomic             Coordinates (Angstroms)
 Number     Number       Type             X           Y           Z
 ---------------------------------------------------------------------
      1          1           0       -1.270430    0.911789    0.006555
      2          6           0       -0.701316   -0.013227   -0.000668
      3          6           0        0.689762   -0.000969   -0.000501
      4          1           0       -1.174119   -0.898785   -0.002802
      5          1           0        1.235249    0.941834   -0.003157
      6          1           0        1.278622   -0.869658    0.006414
 ---------------------------------------------------------------------

 SCF Done:  E(RwB97X) =  -78.5463510050     A.U. after   13 cycles

 The electronic state is 1-A.
 Alpha  occ. eigenvalues --  -10.27097 -10.26652  -0.87610  -0.70920  -0.58011
 Alpha  occ. eigenvalues --   -0.51311  -0.46908  -0.35694
 Alpha virt. eigenvalues --    0.09959   0.22377   0.25482   0.26906   0.34885
 Alpha virt. eigenvalues --    0.41094   0.60016   0.65745   0.66558   0.74554
 Alpha virt. eigenvalues --    0.75817   0.77682   0.99195   1.00483   1.06999

 Mulliken charges:
               1
     1  H    0.165951
     2  C   -0.329805
     3  C   -0.335822
     4  H    0.170863
     5  H    0.159650
     6  H    0.169164
 Sum of Mulliken charges =   0.00000

 Dipole moment (field-independent basis, Debye):
    X=              0.0075    Y=             -0.0346    Z=              0.0066  Tot=              0.0360
 Quadrupole moment (field-independent basis, Debye-Ang):
   XX=            -11.7704   YY=            -11.9998   ZZ=            -15.1535
   XY=             -0.1006   XZ=             -0.0005   YZ=              0.0004

 Normal termination of Gaussian 16 at Wed Jun  5 16:58:47 2019.
