 Gaussian 16, Revision A.03,
 Gaussian 16:  ES64L-G16RevA.03 25-Dec-2016

 ----------------
 # 6-31g(d) wb97x
 ----------------

 ---------------------
 tmpdir/M2_ref_154.gjf
 ---------------------
 Symbolic Z-matrix:
 Charge =  0 Multiplicity = 1

                         Standard orientation:
 ---------------------------------------------------------------------
 Center     Atomic      Atomic             Coordinates (Angstroms)
 Number     Number       Type             X           Y           Z
 ---------------------------------------------------------------------
      1          6           0       -0.700180    0.501775    0.003166
      2          7           0        0.635914    0.676987   -0.003976
      3          6           0        1.355470   -0.435665    0.000659
      4          1           0       -1.246177    1.433215    0.007655
      5          8           0       -1.315644   -0.613409   -0.001622
      6          1           0        2.436926   -0.304240    0.005655
      7          1           0        0.951259   -1.357279    0.004552
 ---------------------------------------------------------------------

 SCF Done:  E(RwB97X) =  -207.874714087     A.U. after   16 cycles

 The electronic state is 1-A.
 Alpha  occ. eigenvalues --  -19.21851 -14.43607 -10.38367 -10.35586  -1.16121
 Alpha  occ. eigenvalues --   -1.05871  -0.84284  -0.70221  -0.64755  -0.57175
 Alpha  occ. eigenvalues --   -0.54215  -0.53058  -0.41604  -0.40560  -0.37192
 Alpha virt. eigenvalues --   -0.01517   0.14292   0.21776   0.24303   0.28194
 Alpha virt. eigenvalues --    0.32614   0.36886   0.45046   0.60149   0.63455
 Alpha virt. eigenvalues --    0.66901   0.69075   0.74586   0.74925   0.78502

 Mulliken charges:
               1
     1  C    0.292350
     2  N   -0.349985
     3  C   -0.101803
     4  H    0.167044
     5  O   -0.426305
     6  H    0.199521
     7  H    0.219178
 Sum of Mulliken charges =  -0.00000

 Dipole moment (field-independent basis, Debye):
    X=              2.1749    Y=             -0.1026    Z=              0.0224  Tot=              2.1774
 Quadrupole moment (field-independent basis, Debye-Ang):
   XX=            -22.2372   YY=            -23.3472   ZZ=            -22.6091
   XY=             -5.6172   XZ=              0.0118   YZ=              0.0066

 Normal termination of Gaussian 16 at Wed Jun  5 16:58:48 2019.
