 Gaussian 16, Revision A.03,
 Gaussian 16:  ES64L-G16RevA.03 25-Dec-2016

 ----------------
 # 6-31g(d) wb97x
 ----------------

 --------------------
 tmpdir/M2_ref_80.gjf
 --------------------
 Symbolic Z-matrix:
 Charge =  0 Multiplicity = 1

                         Standard orientation:
 ---------------------------------------------------------------------
 Center     Atomic      Atomic             Coordinates (Angstroms)
 Number     Number       Type             X           Y           Z
 ---------------------------------------------------------------------
      1          6           0        0.692566    0.482746    0.003834
      2          6           0       -0.696166    0.481732   -0.005155
      3          6           0        1.407240   -0.715405   -0.003966
      4          1           0        1.230959    1.428607    0.015984
      5          1           0       -1.258368    1.411197   -0.011574
      6          6           0       -1.399072   -0.722374    0.004553
 ---------------------------------------------------------------------

 SCF Done:  E(RwB97X) =  -153.246820954     A.U. after   18 cycles

 The electronic state is 1-A.
 Alpha  occ. eigenvalues --  -10.36251 -10.36220 -10.31192 -10.31126  -0.98032
 Alpha  occ. eigenvalues --   -0.84590  -0.72328  -0.60499  -0.59441  -0.46782
 Alpha  occ. eigenvalues --   -0.42486  -0.40058  -0.33229
 Alpha virt. eigenvalues --   -0.03307   0.00465   0.02543   0.16906   0.20883
 Alpha virt. eigenvalues --    0.25110   0.35187   0.46249   0.47979   0.58290
 Alpha virt. eigenvalues --    0.60870   0.63023   0.66251   0.66560   0.69169

 Mulliken charges:
               1
     1  C   -0.270491
     2  C   -0.269447
     3  C    0.034808
     4  H    0.235119
     5  H    0.235169
     6  C    0.034844
 Sum of Mulliken charges =  -0.00000

 Dipole moment (field-independent basis, Debye):
    X=             -0.0311    Y=              3.4408    Z=              0.0045  Tot=              3.4409
 Quadrupole moment (field-independent basis, Debye-Ang):
   XX=            -24.3337   YY=            -23.3665   ZZ=            -25.4642
   XY=             -0.0141   XZ=              0.0916   YZ=              0.0120

 Normal termination of Gaussian 16 at Wed Jun  5 16:57:35 2019.
