 Gaussian 16, Revision A.03,
 Gaussian 16:  ES64L-G16RevA.03 25-Dec-2016

 ----------------
 # 6-31g(d) wb97x
 ----------------

 --------------------
 tmpdir/M2_ref_15.gjf
 --------------------
 Symbolic Z-matrix:
 Charge =  0 Multiplicity = 1

                         Standard orientation:
 ---------------------------------------------------------------------
 Center     Atomic      Atomic             Coordinates (Angstroms)
 Number     Number       Type             X           Y           Z
 ---------------------------------------------------------------------
      1          6           0        1.241078   -0.238658   -0.034446
      2          6           0       -0.051521    0.558515    0.063313
      3          7           0       -1.201591   -0.311810   -0.117955
      4          1           0        1.334251   -0.648782   -1.058425
      5          1           0        2.095025    0.426168    0.141805
      6          1           0        1.253824   -1.070486    0.751820
      7          1           0       -0.065636    1.328721   -0.717121
      8          1           0       -0.083477    1.071484    1.045417
      9          1           0       -2.069926    0.210624   -0.089390
     10          1           0       -1.190268   -1.054197    0.578380
 ---------------------------------------------------------------------

 SCF Done:  E(RwB97X) =  -135.127396869     A.U. after   13 cycles

 The electronic state is 1-A.
 Alpha  occ. eigenvalues --  -14.37838 -10.28456 -10.25930  -1.00118  -0.84957
 Alpha  occ. eigenvalues --   -0.71452  -0.60024  -0.56595  -0.52645  -0.46380
 Alpha  occ. eigenvalues --   -0.45957  -0.44370  -0.32267
 Alpha virt. eigenvalues --    0.18100   0.22338   0.23416   0.26172   0.27067
 Alpha virt. eigenvalues --    0.28893   0.29839   0.33553   0.36052   0.63557
 Alpha virt. eigenvalues --    0.66375   0.68125   0.69301   0.78693   0.79208

 Mulliken charges:
               1
     1  C   -0.461864
     2  C   -0.142546
     3  N   -0.740756
     4  H    0.170108
     5  H    0.155040
     6  H    0.135935
     7  H    0.152082
     8  H    0.119966
     9  H    0.309955
    10  H    0.302080
 Sum of Mulliken charges =  -0.00000

 Dipole moment (field-independent basis, Debye):
    X=             -0.2339    Y=              0.5411    Z=              1.1322  Tot=              1.2765
 Quadrupole moment (field-independent basis, Debye-Ang):
   XX=            -19.0481   YY=            -20.2975   ZZ=            -21.2164
   XY=             -0.5965   XZ=             -1.6468   YZ=             -1.8042

 Normal termination of Gaussian 16 at Wed Jun  5 16:57:14 2019.
