 Gaussian 16, Revision A.03,
 Gaussian 16:  ES64L-G16RevA.03 25-Dec-2016

 ----------------
 # 6-31g(d) wb97x
 ----------------

 ---------------------
 tmpdir/M2_ref_191.gjf
 ---------------------
 Symbolic Z-matrix:
 Charge =  0 Multiplicity = 1

                         Standard orientation:
 ---------------------------------------------------------------------
 Center     Atomic      Atomic             Coordinates (Angstroms)
 Number     Number       Type             X           Y           Z
 ---------------------------------------------------------------------
      1          6           0        0.572585   -0.015268   -0.003062
      2          1           0        1.050896    0.963889    0.005988
      3          1           0        1.131869   -0.857660    0.007045
      4          8           0       -0.702284   -0.001827    0.000667
 ---------------------------------------------------------------------

 SCF Done:  E(RwB97X) =  -114.452475647     A.U. after   13 cycles

 The electronic state is 1-A.
 Alpha  occ. eigenvalues --  -19.23321 -10.36688  -1.14662  -0.77977  -0.61583
 Alpha  occ. eigenvalues --   -0.54275  -0.48027  -0.37030
 Alpha virt. eigenvalues --    0.04231   0.21504   0.28667   0.31080   0.62430
 Alpha virt. eigenvalues --    0.68439   0.73981   0.75216   0.97002   0.97691
 Alpha virt. eigenvalues --    1.05529   1.07724   1.17512   1.47032   1.58963

 Mulliken charges:
               1
     1  C    0.047207
     2  H    0.149559
     3  H    0.170981
     4  O   -0.367747
 Sum of Mulliken charges =   0.00000

 Dipole moment (field-independent basis, Debye):
    X=              2.6197    Y=             -0.0821    Z=              0.0024  Tot=              2.6210
 Quadrupole moment (field-independent basis, Debye-Ang):
   XX=            -11.6563   YY=            -11.2384   ZZ=            -11.4637
   XY=             -0.1777   XZ=              0.0059   YZ=              0.0012

 Normal termination of Gaussian 16 at Wed Jun  5 16:58:44 2019.
