 Gaussian 16, Revision A.03,
 Gaussian 16:  ES64L-G16RevA.03 25-Dec-2016

 ----------------
 # 6-31g(d) wb97x
 ----------------

 --------------------
 tmpdir/M2_ref_96.gjf
 --------------------
 Symbolic Z-matrix:
 Charge =  0 Multiplicity = 1

                         Standard orientation:
 ---------------------------------------------------------------------
 Center     Atomic      Atomic             Coordinates (Angstroms)
 Number     Number       Type             X           Y           Z
 ---------------------------------------------------------------------
      1          6           0       -0.860699   -0.596868    0.179027
      2          6           0        0.441020    0.143413    0.054675
      3          7           0        1.547660   -0.653387   -0.074227
      4          1           0       -0.938284   -1.531308    0.557891
      5          8           0       -1.879673   -0.010790   -0.180420
      6          8           0        0.474925    1.364680    0.055680
      7          1           0        1.369437   -1.630049   -0.254495
      8          1           0        2.491290   -0.375328   -0.188100
 ---------------------------------------------------------------------

 SCF Done:  E(RwB97X) =  -283.114015822     A.U. after   18 cycles

 The electronic state is 1-A.
 Alpha  occ. eigenvalues --  -19.24317 -19.19942 -14.45620 -10.39443 -10.37570
 Alpha  occ. eigenvalues --   -1.19648  -1.16153  -1.05599  -0.83587  -0.71795
 Alpha  occ. eigenvalues --   -0.67323  -0.64824  -0.56553  -0.54552  -0.53579
 Alpha  occ. eigenvalues --   -0.48555  -0.40141  -0.38854  -0.36079
 Alpha virt. eigenvalues --    0.01119   0.14550   0.17267   0.21615   0.24968
 Alpha virt. eigenvalues --    0.31544   0.37491   0.43758   0.48407   0.61869
 Alpha virt. eigenvalues --    0.64029   0.69556   0.71438   0.74571   0.77848

 Mulliken charges:
               1
     1  C    0.154835
     2  C    0.527098
     3  N   -0.781313
     4  H    0.165645
     5  O   -0.338222
     6  O   -0.450905
     7  H    0.348331
     8  H    0.374532
 Sum of Mulliken charges =  -0.00000

 Dipole moment (field-independent basis, Debye):
    X=              2.9682    Y=             -4.6231    Z=              0.1815  Tot=              5.4969
 Quadrupole moment (field-independent basis, Debye-Ang):
   XX=            -26.9551   YY=            -27.9282   ZZ=            -27.6209
   XY=             -1.5590   XZ=             -2.1102   YZ=              0.2743

 Normal termination of Gaussian 16 at Wed Jun  5 16:57:54 2019.
