 Gaussian 16, Revision A.03,
 Gaussian 16:  ES64L-G16RevA.03 25-Dec-2016

 ----------------
 # 6-31g(d) wb97x
 ----------------

 ---------------------
 tmpdir/M2_ref_131.gjf
 ---------------------
 Symbolic Z-matrix:
 Charge =  0 Multiplicity = 1

                         Standard orientation:
 ---------------------------------------------------------------------
 Center     Atomic      Atomic             Coordinates (Angstroms)
 Number     Number       Type             X           Y           Z
 ---------------------------------------------------------------------
      1          6           0       -0.227904    0.437337    0.000221
      2          6           0        1.165076   -0.140349   -0.000136
      3          1           0        1.911003    0.659024   -0.006308
      4          1           0       -0.366611    1.433365   -0.000780
      5          8           0       -1.234612   -0.294180    0.000037
      6          1           0        1.351980   -0.765766   -0.883102
      7          1           0        1.357496   -0.755112    0.889379
 ---------------------------------------------------------------------

 SCF Done:  E(RwB97X) =  -153.774309149     A.U. after   14 cycles

 The electronic state is 1-A.
 Alpha  occ. eigenvalues --  -19.21276 -10.35862 -10.28023  -1.15117  -0.88041
 Alpha  occ. eigenvalues --   -0.72378  -0.58900  -0.55040  -0.53973  -0.49840
 Alpha  occ. eigenvalues --   -0.45445  -0.35644
 Alpha virt. eigenvalues --    0.06193   0.20871   0.22505   0.27204   0.28279
 Alpha virt. eigenvalues --    0.34901   0.36654   0.63196   0.63518   0.67907
 Alpha virt. eigenvalues --    0.72161   0.75801   0.83098   0.87477   0.96235

 Mulliken charges:
               1
     1  C    0.226008
     2  C   -0.561950
     3  H    0.165188
     4  H    0.155783
     5  O   -0.396601
     6  H    0.205848
     7  H    0.205724
 Sum of Mulliken charges =  -0.00000

 Dipole moment (field-independent basis, Debye):
    X=              2.5043    Y=              1.2392    Z=              0.0011  Tot=              2.7941
 Quadrupole moment (field-independent basis, Debye-Ang):
   XX=            -20.6729   YY=            -17.3318   ZZ=            -17.4595
   XY=             -1.4059   XZ=              0.0041   YZ=              0.0014

 Normal termination of Gaussian 16 at Wed Jun  5 16:58:07 2019.
