 Gaussian 16, Revision A.03,
 Gaussian 16:  ES64L-G16RevA.03 25-Dec-2016

 ----------------
 # 6-31g(d) wb97x
 ----------------

 --------------------
 tmpdir/M2_ref_34.gjf
 --------------------
 Symbolic Z-matrix:
 Charge =  0 Multiplicity = 1

                         Standard orientation:
 ---------------------------------------------------------------------
 Center     Atomic      Atomic             Coordinates (Angstroms)
 Number     Number       Type             X           Y           Z
 ---------------------------------------------------------------------
      1          6           0       -0.000335    0.002502   -0.001697
      2          1           0       -0.615523   -0.574932   -0.720929
      3          1           0        1.109892   -0.050137   -0.266918
      4          1           0       -0.146549   -0.437964    0.991796
      5          1           0       -0.345810    1.048020    0.006230
 ---------------------------------------------------------------------

 SCF Done:  E(RwB97X) =  -40.4976855472     A.U. after   11 cycles

 The electronic state is 1-A.
 Alpha  occ. eigenvalues --  -10.25715  -0.81230  -0.49485  -0.49203  -0.48773
 Alpha virt. eigenvalues --    0.21083   0.26419   0.27061   0.27409   0.64009
 Alpha virt. eigenvalues --    0.64270   0.65604   0.98785   1.00669   1.01386
 Alpha virt. eigenvalues --    1.04993   1.20202   1.76023   1.76271   2.29821

 Mulliken charges:
               1
     1  C   -0.658685
     2  H    0.165377
     3  H    0.157806
     4  H    0.167737
     5  H    0.167765
 Sum of Mulliken charges =  -0.00000

 Dipole moment (field-independent basis, Debye):
    X=             -0.0373    Y=             -0.0054    Z=              0.0271  Tot=              0.0464
 Quadrupole moment (field-independent basis, Debye-Ang):
   XX=             -8.2132   YY=             -8.3043   ZZ=             -8.3862
   XY=             -0.0022   XZ=              0.0152   YZ=             -0.0096

 Normal termination of Gaussian 16 at Wed Jun  5 16:57:18 2019.
