 Gaussian 16, Revision A.03,
 Gaussian 16:  ES64L-G16RevA.03 25-Dec-2016

 ----------------
 # 6-31g(d) wb97x
 ----------------

 --------------------
 tmpdir/M2_ref_85.gjf
 --------------------
 Symbolic Z-matrix:
 Charge =  0 Multiplicity = 1

                         Standard orientation:
 ---------------------------------------------------------------------
 Center     Atomic      Atomic             Coordinates (Angstroms)
 Number     Number       Type             X           Y           Z
 ---------------------------------------------------------------------
      1          6           0       -0.694919   -0.011357    0.001207
      2          6           0        0.699362   -0.009786   -0.002961
      3          1           0       -1.201345   -0.879770   -0.004249
      4          1           0       -1.215298    0.942175    0.002191
      5          1           0        1.192397   -0.892674    0.009695
      6          1           0        1.197591    0.957129    0.002884
 ---------------------------------------------------------------------

 SCF Done:  E(RwB97X) =  -78.5421871795     A.U. after   12 cycles

 The electronic state is 1-A.
 Alpha  occ. eigenvalues --  -10.26624 -10.26494  -0.87787  -0.70789  -0.58890
 Alpha  occ. eigenvalues --   -0.50366  -0.47610  -0.35598
 Alpha virt. eigenvalues --    0.09977   0.21919   0.26480   0.27277   0.34995
 Alpha virt. eigenvalues --    0.40410   0.59563   0.66654   0.67008   0.74663
 Alpha virt. eigenvalues --    0.75518   0.77854   1.00015   1.00382   1.07925

 Mulliken charges:
               1
     1  C   -0.333356
     2  C   -0.333285
     3  H    0.170668
     4  H    0.161582
     5  H    0.171169
     6  H    0.163222
 Sum of Mulliken charges =   0.00000

 Dipole moment (field-independent basis, Debye):
    X=             -0.0121    Y=             -0.0362    Z=              0.0103  Tot=              0.0395
 Quadrupole moment (field-independent basis, Debye-Ang):
   XX=            -12.0630   YY=            -11.7719   ZZ=            -15.1255
   XY=             -0.0014   XZ=              0.0185   YZ=             -0.0003

 Normal termination of Gaussian 16 at Wed Jun  5 16:57:31 2019.
