 Gaussian 16, Revision A.03,
 Gaussian 16:  ES64L-G16RevA.03 25-Dec-2016

 ----------------
 # 6-31g(d) wb97x
 ----------------

 ---------------------
 tmpdir/M2_ref_187.gjf
 ---------------------
 Symbolic Z-matrix:
 Charge =  0 Multiplicity = 1

                         Standard orientation:
 ---------------------------------------------------------------------
 Center     Atomic      Atomic             Coordinates (Angstroms)
 Number     Number       Type             X           Y           Z
 ---------------------------------------------------------------------
      1          6           0       -1.379065   -0.470056   -0.000415
      2          6           0       -0.518705    0.623117   -0.002155
      3          7           0        0.812238    0.516575    0.001920
      4          1           0       -0.983719   -1.392791   -0.004832
      5          1           0       -2.456758   -0.335694    0.010680
      6          1           0       -0.913286    1.638374   -0.002439
      7          8           0        1.256840   -0.555534   -0.000179
 ---------------------------------------------------------------------

 SCF Done:  E(RwB97X) =  -207.792719515     A.U. after   18 cycles

 The electronic state is 1-A.
 Alpha  occ. eigenvalues --  -19.26107 -14.50590 -10.31292 -10.31063  -1.31805
 Alpha  occ. eigenvalues --   -0.96787  -0.84639  -0.68303  -0.64397  -0.60115
 Alpha  occ. eigenvalues --   -0.58801  -0.54061  -0.49578  -0.38917  -0.31170
 Alpha virt. eigenvalues --   -0.01759   0.15173   0.20813   0.24523   0.28506
 Alpha virt. eigenvalues --    0.37814   0.38507   0.48186   0.62850   0.64978
 Alpha virt. eigenvalues --    0.69952   0.71415   0.72829   0.76351   0.80697

 Mulliken charges:
               1
     1  C   -0.301836
     2  C   -0.045853
     3  N    0.045635
     4  H    0.209262
     5  H    0.196907
     6  H    0.184252
     7  O   -0.288367
 Sum of Mulliken charges =  -0.00000

 Dipole moment (field-independent basis, Debye):
    X=             -3.0453    Y=              0.0339    Z=             -0.0017  Tot=              3.0455
 Quadrupole moment (field-independent basis, Debye-Ang):
   XX=            -22.8359   YY=            -22.0923   ZZ=            -22.9857
   XY=              0.2171   XZ=             -0.0302   YZ=             -0.0111

 Normal termination of Gaussian 16 at Wed Jun  5 16:58:45 2019.
