 Gaussian 16, Revision A.03,
 Gaussian 16:  ES64L-G16RevA.03 25-Dec-2016

 ----------------
 # 6-31g(d) wb97x
 ----------------

 ---------------------
 tmpdir/M2_ref_122.gjf
 ---------------------
 Symbolic Z-matrix:
 Charge =  0 Multiplicity = 1

                         Standard orientation:
 ---------------------------------------------------------------------
 Center     Atomic      Atomic             Coordinates (Angstroms)
 Number     Number       Type             X           Y           Z
 ---------------------------------------------------------------------
      1          1           0       -1.221888    1.443710   -0.001953
      2          6           0       -0.685565    0.497132   -0.001457
      3          6           0        0.703531    0.515844    0.001063
      4          8           0       -1.320188   -0.549079    0.000872
      5          1           0        1.244067    1.464252    0.003031
      6          8           0        1.303941   -0.574148   -0.000712
 ---------------------------------------------------------------------

 SCF Done:  E(RwB97X) =  -227.736553415     A.U. after   14 cycles

 The electronic state is 1-A.
 Alpha  occ. eigenvalues --  -19.25646 -19.25355 -10.38321 -10.37914  -1.21417
 Alpha  occ. eigenvalues --   -1.17177  -0.88060  -0.69247  -0.67020  -0.58111
 Alpha  occ. eigenvalues --   -0.56203  -0.55116  -0.47662  -0.41014  -0.38252
 Alpha virt. eigenvalues --   -0.03876   0.14172   0.20429   0.23831   0.27036
 Alpha virt. eigenvalues --    0.41485   0.48986   0.58866   0.61402   0.67457
 Alpha virt. eigenvalues --    0.69090   0.76891   0.78096   0.85890   0.92623

 Mulliken charges:
               1
     1  H    0.147576
     2  C    0.185243
     3  C    0.171006
     4  O   -0.332517
     5  H    0.165617
     6  O   -0.336926
 Sum of Mulliken charges =   0.00000

 Dipole moment (field-independent basis, Debye):
    X=              0.1093    Y=              3.6737    Z=             -0.0002  Tot=              3.6754
 Quadrupole moment (field-independent basis, Debye-Ang):
   XX=            -25.5049   YY=            -21.1422   ZZ=            -20.8326
   XY=              0.2170   XZ=              0.0059   YZ=              0.0009

 Normal termination of Gaussian 16 at Wed Jun  5 16:58:13 2019.
