 Gaussian 16, Revision A.03,
 Gaussian 16:  ES64L-G16RevA.03 25-Dec-2016

 ----------------
 # 6-31g(d) wb97x
 ----------------

 --------------------
 tmpdir/M2_ref_89.gjf
 --------------------
 Symbolic Z-matrix:
 Charge =  0 Multiplicity = 1

                         Standard orientation:
 ---------------------------------------------------------------------
 Center     Atomic      Atomic             Coordinates (Angstroms)
 Number     Number       Type             X           Y           Z
 ---------------------------------------------------------------------
      1          6           0       -0.756160    0.483848   -0.089269
      2          6           0        0.736487    0.473493    0.083507
      3          1           0       -1.282910    1.306763   -0.350188
      4          6           0       -1.430329   -0.722393    0.096519
      5          6           0        1.469287   -0.689418   -0.092746
      6          1           0        1.167202    1.420052    0.362122
 ---------------------------------------------------------------------

 SCF Done:  E(RwB97X) =  -153.250874155     A.U. after   18 cycles

 The electronic state is 1-A.
 Alpha  occ. eigenvalues --  -10.36547 -10.36520 -10.32029 -10.31436  -0.96449
 Alpha  occ. eigenvalues --   -0.85543  -0.71334  -0.62389  -0.58584  -0.44919
 Alpha  occ. eigenvalues --   -0.42220  -0.40581  -0.34844
 Alpha virt. eigenvalues --   -0.02123  -0.00915   0.03967   0.13972   0.22707
 Alpha virt. eigenvalues --    0.25132   0.36444   0.40287   0.46781   0.57902
 Alpha virt. eigenvalues --    0.61334   0.62435   0.63865   0.67121   0.69537

 Mulliken charges:
               1
     1  C   -0.270538
     2  C   -0.280640
     3  H    0.231775
     4  C    0.041854
     5  C    0.041511
     6  H    0.236038
 Sum of Mulliken charges =   0.00000

 Dipole moment (field-independent basis, Debye):
    X=             -0.1559    Y=              3.3234    Z=             -0.0025  Tot=              3.3271
 Quadrupole moment (field-independent basis, Debye-Ang):
   XX=            -24.5613   YY=            -23.6657   ZZ=            -25.1026
   XY=             -0.0012   XZ=              1.9821   YZ=              0.1098

 Normal termination of Gaussian 16 at Wed Jun  5 16:57:59 2019.
