 Gaussian 16, Revision A.03,
 Gaussian 16:  ES64L-G16RevA.03 25-Dec-2016

 ----------------
 # 6-31g(d) wb97x
 ----------------

 ---------------------
 tmpdir/M2_ref_145.gjf
 ---------------------
 Symbolic Z-matrix:
 Charge =  0 Multiplicity = 1

                         Standard orientation:
 ---------------------------------------------------------------------
 Center     Atomic      Atomic             Coordinates (Angstroms)
 Number     Number       Type             X           Y           Z
 ---------------------------------------------------------------------
      1          1           0        1.822077    0.495016    0.008603
      2          7           0        1.079839   -0.188087   -0.000553
      3          6           0       -0.148593    0.426559   -0.001946
      4          1           0        1.356031   -1.130185   -0.001889
      5          8           0       -1.220585   -0.261394    0.001092
      6          1           0       -0.080742    1.483573    0.000096
 ---------------------------------------------------------------------

 SCF Done:  E(RwB97X) =  -169.829149443     A.U. after   15 cycles

 The electronic state is 1-A.
 Alpha  occ. eigenvalues --  -19.17954 -14.44199 -10.38029  -1.13016  -1.03275
 Alpha  occ. eigenvalues --   -0.76693  -0.65291  -0.61095  -0.50509  -0.50110
 Alpha  occ. eigenvalues --   -0.36469  -0.35180
 Alpha virt. eigenvalues --    0.10891   0.17541   0.20675   0.27923   0.35339
 Alpha virt. eigenvalues --    0.43394   0.64579   0.65609   0.74412   0.75568
 Alpha virt. eigenvalues --    0.80322   0.82417   0.96261   0.98935   0.99900

 Mulliken charges:
               1
     1  H    0.336481
     2  N   -0.724586
     3  C    0.339381
     4  H    0.373280
     5  O   -0.480526
     6  H    0.155970
 Sum of Mulliken charges =  -0.00000

 Dipole moment (field-independent basis, Debye):
    X=              4.0872    Y=              1.1582    Z=              0.0069  Tot=              4.2482
 Quadrupole moment (field-independent basis, Debye-Ang):
   XX=            -17.6065   YY=            -14.3797   ZZ=            -18.5079
   XY=             -1.3968   XZ=              0.0299   YZ=              0.0143

 Normal termination of Gaussian 16 at Wed Jun  5 16:58:11 2019.
