 Gaussian 16, Revision A.03,
 Gaussian 16:  ES64L-G16RevA.03 25-Dec-2016

 ----------------
 # 6-31g(d) wb97x
 ----------------

 ---------------------
 tmpdir/M2_ref_160.gjf
 ---------------------
 Symbolic Z-matrix:
 Charge =  0 Multiplicity = 1

                         Standard orientation:
 ---------------------------------------------------------------------
 Center     Atomic      Atomic             Coordinates (Angstroms)
 Number     Number       Type             X           Y           Z
 ---------------------------------------------------------------------
      1          6           0        0.549651    0.012982   -0.003019
      2          1           0        1.150156   -0.888838    0.006339
      3          1           0        0.976902    0.924103    0.006433
      4          8           0       -0.678121   -0.014144    0.000667
 ---------------------------------------------------------------------

 SCF Done:  E(RwB97X) =  -114.457338505     A.U. after   14 cycles

 The electronic state is 1-A.
 Alpha  occ. eigenvalues --  -19.22951 -10.35850  -1.16975  -0.77209  -0.62351
 Alpha  occ. eigenvalues --   -0.54875  -0.49437  -0.36834
 Alpha virt. eigenvalues --    0.05568   0.21858   0.29388   0.31962   0.62192
 Alpha virt. eigenvalues --    0.70582   0.74532   0.78270   0.96027   0.98734
 Alpha virt. eigenvalues --    1.06255   1.07934   1.17817   1.48360   1.61049

 Mulliken charges:
               1
     1  C    0.055039
     2  H    0.142332
     3  H    0.155183
     4  O   -0.352554
 Sum of Mulliken charges =   0.00000

 Dipole moment (field-independent basis, Debye):
    X=              2.4560    Y=              0.1055    Z=              0.0014  Tot=              2.4583
 Quadrupole moment (field-independent basis, Debye-Ang):
   XX=            -11.7744   YY=            -11.2231   ZZ=            -11.3407
   XY=             -0.0582   XZ=              0.0052   YZ=              0.0003

 Normal termination of Gaussian 16 at Wed Jun  5 16:58:13 2019.
