 Gaussian 16, Revision A.03,
 Gaussian 16:  ES64L-G16RevA.03 25-Dec-2016

 ----------------
 # 6-31g(d) wb97x
 ----------------

 ---------------------
 tmpdir/M2_ref_166.gjf
 ---------------------
 Symbolic Z-matrix:
 Charge =  0 Multiplicity = 1

                         Standard orientation:
 ---------------------------------------------------------------------
 Center     Atomic      Atomic             Coordinates (Angstroms)
 Number     Number       Type             X           Y           Z
 ---------------------------------------------------------------------
      1          7           0        0.806052    0.518765    0.002354
      2          6           0       -0.528564    0.640125   -0.003818
      3          6           0       -1.356296   -0.480261   -0.002861
      4          8           0        1.239335   -0.556802    0.000949
      5          1           0       -0.914269    1.643253   -0.001163
      6          1           0       -0.896987   -1.375660   -0.011255
      7          1           0       -2.436636   -0.403714    0.028418
 ---------------------------------------------------------------------

 SCF Done:  E(RwB97X) =  -207.792672595     A.U. after   21 cycles

 The electronic state is 1-A.
 Alpha  occ. eigenvalues --  -19.26063 -14.50583 -10.31190 -10.30921  -1.31866
 Alpha  occ. eigenvalues --   -0.96750  -0.84393  -0.68350  -0.64596  -0.59978
 Alpha  occ. eigenvalues --   -0.58802  -0.53923  -0.49918  -0.38847  -0.31092
 Alpha virt. eigenvalues --   -0.01655   0.15035   0.21311   0.24661   0.28503
 Alpha virt. eigenvalues --    0.37485   0.38783   0.48362   0.62939   0.64632
 Alpha virt. eigenvalues --    0.69807   0.71410   0.72907   0.76527   0.80992

 Mulliken charges:
               1
     1  N    0.047640
     2  C   -0.050109
     3  C   -0.304031
     4  O   -0.289662
     5  H    0.187186
     6  H    0.210736
     7  H    0.198239
 Sum of Mulliken charges =  -0.00000

 Dipole moment (field-independent basis, Debye):
    X=             -3.0097    Y=              0.0553    Z=              0.0040  Tot=              3.0102
 Quadrupole moment (field-independent basis, Debye-Ang):
   XX=            -22.8916   YY=            -22.0424   ZZ=            -22.9751
   XY=              0.1889   XZ=             -0.0748   YZ=             -0.0118

 Normal termination of Gaussian 16 at Wed Jun  5 16:58:34 2019.
