 Gaussian 16, Revision A.03,
 Gaussian 16:  ES64L-G16RevA.03 25-Dec-2016

 ----------------
 # 6-31g(d) wb97x
 ----------------

 ---------------------
 tmpdir/M2_ref_181.gjf
 ---------------------
 Symbolic Z-matrix:
 Charge =  0 Multiplicity = 1

                         Standard orientation:
 ---------------------------------------------------------------------
 Center     Atomic      Atomic             Coordinates (Angstroms)
 Number     Number       Type             X           Y           Z
 ---------------------------------------------------------------------
      1          6           0       -0.690993    0.513229   -0.000812
      2          6           0        0.695787    0.511067   -0.000485
      3          1           0        1.245217    1.447923    0.004562
      4          8           0       -1.285407   -0.563692    0.000592
      5          1           0       -1.240707    1.448766   -0.000398
      6          8           0        1.281248   -0.566616   -0.000139
 ---------------------------------------------------------------------

 SCF Done:  E(RwB97X) =  -227.736194836     A.U. after   14 cycles

 The electronic state is 1-A.
 Alpha  occ. eigenvalues --  -19.25287 -19.25268 -10.37872 -10.37819  -1.21730
 Alpha  occ. eigenvalues --   -1.17240  -0.87815  -0.69280  -0.67215  -0.58058
 Alpha  occ. eigenvalues --   -0.56345  -0.55096  -0.47654  -0.40719  -0.38258
 Alpha virt. eigenvalues --   -0.03568   0.14347   0.20784   0.23858   0.27279
 Alpha virt. eigenvalues --    0.41384   0.49500   0.58886   0.61173   0.67372
 Alpha virt. eigenvalues --    0.69821   0.77702   0.78362   0.86430   0.92822

 Mulliken charges:
               1
     1  C    0.175630
     2  C    0.176674
     3  H    0.156457
     4  O   -0.333713
     5  H    0.156913
     6  O   -0.331960
 Sum of Mulliken charges =  -0.00000

 Dipole moment (field-independent basis, Debye):
    X=              0.0202    Y=              3.7058    Z=             -0.0009  Tot=              3.7058
 Quadrupole moment (field-independent basis, Debye-Ang):
   XX=            -25.2795   YY=            -21.1179   ZZ=            -20.7916
   XY=              0.0040   XZ=              0.0038   YZ=              0.0015

 Normal termination of Gaussian 16 at Wed Jun  5 16:58:33 2019.
