 Gaussian 16, Revision A.03,
 Gaussian 16:  ES64L-G16RevA.03 25-Dec-2016

 ----------------
 # 6-31g(d) wb97x
 ----------------

 --------------------
 tmpdir/M2_ref_66.gjf
 --------------------
 Symbolic Z-matrix:
 Charge =  0 Multiplicity = 1

                         Standard orientation:
 ---------------------------------------------------------------------
 Center     Atomic      Atomic             Coordinates (Angstroms)
 Number     Number       Type             X           Y           Z
 ---------------------------------------------------------------------
      1          6           0       -1.723704   -0.523395    0.002675
      2          6           0       -0.359418    0.134264   -0.020601
      3          6           0        0.800202   -0.642346   -0.007578
      4          1           0       -1.764561   -1.488029   -0.605159
      5          1           0       -2.488756    0.206100   -0.329189
      6          1           0       -1.968573   -0.776536    1.043170
      7          8           0       -0.252554    1.359476   -0.004537
      8          1           0        0.703331   -1.724810   -0.019631
      9          8           0        1.904564   -0.112959    0.012516
 ---------------------------------------------------------------------

 SCF Done:  E(RwB97X) =  -267.055183339     A.U. after   17 cycles

 The electronic state is 1-A.
 Alpha  occ. eigenvalues --  -19.24815 -19.23517 -10.37645 -10.37379 -10.30039
 Alpha  occ. eigenvalues --   -1.20887  -1.16624  -0.91481  -0.82246  -0.67515
 Alpha  occ. eigenvalues --   -0.61966  -0.58452  -0.58302  -0.53450  -0.52263
 Alpha  occ. eigenvalues --   -0.51772  -0.46044  -0.40012  -0.36977
 Alpha virt. eigenvalues --   -0.02407   0.14101   0.18159   0.22542   0.23183
 Alpha virt. eigenvalues --    0.25959   0.31086   0.32000   0.44157   0.49715
 Alpha virt. eigenvalues --    0.58847   0.59741   0.66978   0.67702   0.73352

 Mulliken charges:
               1
     1  C   -0.582575
     2  C    0.397486
     3  C    0.167702
     4  H    0.173825
     5  H    0.213981
     6  H    0.204677
     7  O   -0.386925
     8  H    0.147422
     9  O   -0.335595
 Sum of Mulliken charges =  -0.00000

 Dipole moment (field-independent basis, Debye):
    X=             -2.6642    Y=             -3.2055    Z=              0.0636  Tot=              4.1686
 Quadrupole moment (field-independent basis, Debye-Ang):
   XX=            -31.4430   YY=            -30.1827   ZZ=            -27.0197
   XY=              0.1470   XZ=             -0.2741   YZ=             -0.0153

 Normal termination of Gaussian 16 at Wed Jun  5 16:57:43 2019.
