 Gaussian 16, Revision A.03,
 Gaussian 16:  ES64L-G16RevA.03 25-Dec-2016

 ----------------
 # 6-31g(d) wb97x
 ----------------

 --------------------
 tmpdir/M2_ref_73.gjf
 --------------------
 Symbolic Z-matrix:
 Charge =  0 Multiplicity = 1

                         Standard orientation:
 ---------------------------------------------------------------------
 Center     Atomic      Atomic             Coordinates (Angstroms)
 Number     Number       Type             X           Y           Z
 ---------------------------------------------------------------------
      1          1           0        1.248835    0.924419   -0.008278
      2          6           0        0.692812   -0.009396    0.001013
      3          6           0       -0.696501   -0.008521   -0.005478
      4          1           0        1.206260   -0.879486    0.010746
      5          1           0       -1.224157    0.942985    0.021003
      6          1           0       -1.208807   -0.880415    0.003322
 ---------------------------------------------------------------------

 SCF Done:  E(RwB97X) =  -78.5442499043     A.U. after   12 cycles

 The electronic state is 1-A.
 Alpha  occ. eigenvalues --  -10.26646 -10.26569  -0.87782  -0.70995  -0.58444
 Alpha  occ. eigenvalues --   -0.51022  -0.47258  -0.35696
 Alpha virt. eigenvalues --    0.10023   0.22271   0.26268   0.27017   0.35053
 Alpha virt. eigenvalues --    0.40988   0.59719   0.66126   0.66583   0.74650
 Alpha virt. eigenvalues --    0.75694   0.77885   0.99858   1.00336   1.08390

 Mulliken charges:
               1
     1  H    0.162156
     2  C   -0.333078
     3  C   -0.332503
     4  H    0.170004
     5  H    0.162203
     6  H    0.171218
 Sum of Mulliken charges =  -0.00000

 Dipole moment (field-independent basis, Debye):
    X=              0.0101    Y=             -0.0418    Z=              0.0257  Tot=              0.0501
 Quadrupole moment (field-independent basis, Debye-Ang):
   XX=            -11.8779   YY=            -11.9076   ZZ=            -15.1121
   XY=              0.0249   XZ=             -0.0275   YZ=             -0.0002

 Normal termination of Gaussian 16 at Wed Jun  5 16:57:49 2019.
