 Gaussian 16, Revision A.03,
 Gaussian 16:  ES64L-G16RevA.03 25-Dec-2016

 ----------------
 # 6-31g(d) wb97x
 ----------------

 --------------------
 tmpdir/M2_ref_67.gjf
 --------------------
 Symbolic Z-matrix:
 Charge =  0 Multiplicity = 1

                         Standard orientation:
 ---------------------------------------------------------------------
 Center     Atomic      Atomic             Coordinates (Angstroms)
 Number     Number       Type             X           Y           Z
 ---------------------------------------------------------------------
      1          6           0        1.230939   -0.178866   -0.002545
      2          6           0       -0.116161    0.513649   -0.011376
      3          6           0       -1.298130   -0.227464   -0.002195
      4          1           0        2.023821    0.379664   -0.603405
      5          1           0        1.109112   -1.223545   -0.350975
      6          1           0        1.583065   -0.238428    1.036268
      7          1           0       -0.173466    1.522029    0.014430
      8          1           0       -1.250248   -1.314341   -0.034961
      9          1           0       -2.192172    0.230705    0.035335
 ---------------------------------------------------------------------

 SCF Done:  E(RwB97X) =  -117.849408900     A.U. after   14 cycles

 The electronic state is 1-A.
 Alpha  occ. eigenvalues --  -10.27196 -10.26930 -10.25462  -0.90512  -0.80045
 Alpha  occ. eigenvalues --   -0.68302  -0.57851  -0.51583  -0.51074  -0.46600
 Alpha  occ. eigenvalues --   -0.45896  -0.33682
 Alpha virt. eigenvalues --    0.10509   0.20896   0.23867   0.25181   0.27706
 Alpha virt. eigenvalues --    0.28468   0.30518   0.38365   0.44676   0.61163
 Alpha virt. eigenvalues --    0.63801   0.65270   0.70860   0.73067   0.76095

 Mulliken charges:
               1
     1  C   -0.508477
     2  C   -0.099473
     3  C   -0.365001
     4  H    0.156172
     5  H    0.166873
     6  H    0.175023
     7  H    0.160565
     8  H    0.149740
     9  H    0.164578
 Sum of Mulliken charges =   0.00000

 Dipole moment (field-independent basis, Debye):
    X=              0.2807    Y=              0.1123    Z=              0.1121  Tot=              0.3225
 Quadrupole moment (field-independent basis, Debye-Ang):
   XX=            -18.9435   YY=            -18.4036   ZZ=            -21.4334
   XY=              0.1288   XZ=             -0.0088   YZ=              0.0211

 Normal termination of Gaussian 16 at Wed Jun  5 16:57:52 2019.
