 Gaussian 16, Revision A.03,
 Gaussian 16:  ES64L-G16RevA.03 25-Dec-2016

 ----------------
 # 6-31g(d) wb97x
 ----------------

 ---------------------
 tmpdir/M2_ref_138.gjf
 ---------------------
 Symbolic Z-matrix:
 Charge =  0 Multiplicity = 1

                         Standard orientation:
 ---------------------------------------------------------------------
 Center     Atomic      Atomic             Coordinates (Angstroms)
 Number     Number       Type             X           Y           Z
 ---------------------------------------------------------------------
      1          6           0       -0.812901    0.483088    0.001552
      2          6           0        0.574300    0.648968   -0.001406
      3          6           0        1.433032   -0.471283    0.000825
      4          8           0       -1.288264   -0.650795   -0.001618
      5          1           0       -1.456221    1.347502    0.006888
      6          1           0        1.060287    1.638106   -0.004347
      7          1           0        1.016766   -1.386713    0.005480
      8          1           0        2.518683   -0.357177   -0.000908
 ---------------------------------------------------------------------

 SCF Done:  E(RwB97X) =  -191.834291931     A.U. after   15 cycles

 The electronic state is 1-A.
 Alpha  occ. eigenvalues --  -19.20565 -10.35213 -10.30177 -10.29118  -1.15862
 Alpha  occ. eigenvalues --   -0.91750  -0.79543  -0.66810  -0.63153  -0.55248
 Alpha  occ. eigenvalues --   -0.52696  -0.50439  -0.48984  -0.36737  -0.35828
 Alpha virt. eigenvalues --    0.00851   0.17100   0.20242   0.24145   0.26568
 Alpha virt. eigenvalues --    0.30227   0.34407   0.41042   0.46603   0.62120
 Alpha virt. eigenvalues --    0.62953   0.67944   0.68829   0.70155   0.74351

 Mulliken charges:
               1
     1  C    0.215209
     2  C   -0.204438
     3  C   -0.297527
     4  O   -0.416528
     5  H    0.140439
     6  H    0.167082
     7  H    0.212143
     8  H    0.183620
 Sum of Mulliken charges =  -0.00000

 Dipole moment (field-independent basis, Debye):
    X=              2.0903    Y=              1.7391    Z=              0.0081  Tot=              2.7192
 Quadrupole moment (field-independent basis, Debye-Ang):
   XX=            -22.9305   YY=            -21.9702   ZZ=            -24.3663
   XY=             -3.2522   XZ=             -0.0091   YZ=             -0.0101

 Normal termination of Gaussian 16 at Wed Jun  5 16:58:20 2019.
