 Gaussian 16, Revision A.03,
 Gaussian 16:  ES64L-G16RevA.03 25-Dec-2016

 ----------------
 # 6-31g(d) wb97x
 ----------------

 ---------------------
 tmpdir/M2_ref_173.gjf
 ---------------------
 Symbolic Z-matrix:
 Charge =  0 Multiplicity = 1

                         Standard orientation:
 ---------------------------------------------------------------------
 Center     Atomic      Atomic             Coordinates (Angstroms)
 Number     Number       Type             X           Y           Z
 ---------------------------------------------------------------------
      1          6           0        1.407819   -0.512333    0.002463
      2          6           0        0.634035    0.648659   -0.006597
      3          6           0       -0.755196    0.502563   -0.000697
      4          1           0        2.491380   -0.455184    0.009183
      5          1           0        0.944130   -1.402697    0.004432
      6          1           0        1.103908    1.615218   -0.001535
      7          8           0       -1.357246   -0.621279   -0.001556
      8          1           0       -1.401399    1.379564    0.029351
 ---------------------------------------------------------------------

 SCF Done:  E(RwB97X) =  -191.833576768     A.U. after   16 cycles

 The electronic state is 1-A.
 Alpha  occ. eigenvalues --  -19.20437 -10.35547 -10.30423 -10.29325  -1.13232
 Alpha  occ. eigenvalues --   -0.92804  -0.79787  -0.66923  -0.63384  -0.55267
 Alpha  occ. eigenvalues --   -0.52256  -0.49492  -0.49196  -0.37094  -0.35512
 Alpha virt. eigenvalues --    0.00406   0.16535   0.20149   0.24110   0.26723
 Alpha virt. eigenvalues --    0.29993   0.34239   0.41134   0.45479   0.62096
 Alpha virt. eigenvalues --    0.62227   0.68697   0.68926   0.69749   0.73837

 Mulliken charges:
               1
     1  C   -0.295173
     2  C   -0.193168
     3  C    0.202570
     4  H    0.184558
     5  H    0.218215
     6  H    0.179879
     7  O   -0.439550
     8  H    0.142669
 Sum of Mulliken charges =  -0.00000

 Dipole moment (field-independent basis, Debye):
    X=              2.5210    Y=              1.7419    Z=              0.0232  Tot=              3.0643
 Quadrupole moment (field-independent basis, Debye-Ang):
   XX=            -23.5584   YY=            -21.6234   ZZ=            -24.3792
   XY=             -3.1566   XZ=              0.0080   YZ=              0.0018

 Normal termination of Gaussian 16 at Wed Jun  5 16:59:03 2019.
