 Gaussian 16, Revision A.03,
 Gaussian 16:  ES64L-G16RevA.03 25-Dec-2016

 ----------------
 # 6-31g(d) wb97x
 ----------------

 ---------------------
 tmpdir/M2_ref_119.gjf
 ---------------------
 Symbolic Z-matrix:
 Charge =  0 Multiplicity = 1

                         Standard orientation:
 ---------------------------------------------------------------------
 Center     Atomic      Atomic             Coordinates (Angstroms)
 Number     Number       Type             X           Y           Z
 ---------------------------------------------------------------------
      1          6           0       -0.685271    0.477621   -0.001480
      2          6           0        0.703843    0.494925    0.001094
      3          6           0       -1.406314   -0.708346    0.001113
      4          1           0       -1.220634    1.424742   -0.001980
      5          1           0        1.245340    1.442785    0.003100
      6          6           0        1.383624   -0.742122   -0.000914
 ---------------------------------------------------------------------

 SCF Done:  E(RwB97X) =  -153.244449748     A.U. after   19 cycles

 The electronic state is 1-A.
 Alpha  occ. eigenvalues --  -10.36644 -10.36003 -10.31450 -10.30997  -0.97982
 Alpha  occ. eigenvalues --   -0.84306  -0.72432  -0.60264  -0.59405  -0.46713
 Alpha  occ. eigenvalues --   -0.42540  -0.40051  -0.33103
 Alpha virt. eigenvalues --   -0.03450   0.00547   0.02413   0.16785   0.20815
 Alpha virt. eigenvalues --    0.25144   0.34965   0.45982   0.47783   0.58479
 Alpha virt. eigenvalues --    0.60926   0.63282   0.66144   0.66554   0.69236

 Mulliken charges:
               1
     1  C   -0.274546
     2  C   -0.264714
     3  C    0.032680
     4  H    0.236099
     5  H    0.233056
     6  C    0.037425
 Sum of Mulliken charges =  -0.00000

 Dipole moment (field-independent basis, Debye):
    X=              0.1498    Y=              3.4588    Z=              0.0012  Tot=              3.4621
 Quadrupole moment (field-independent basis, Debye-Ang):
   XX=            -24.2328   YY=            -23.3836   ZZ=            -25.4926
   XY=             -0.1178   XZ=              0.0185   YZ=              0.0026

 Normal termination of Gaussian 16 at Wed Jun  5 16:58:14 2019.
