 Gaussian 16, Revision A.03,
 Gaussian 16:  ES64L-G16RevA.03 25-Dec-2016

 ----------------
 # 6-31g(d) wb97x
 ----------------

 --------------------
 tmpdir/M2_ref_99.gjf
 --------------------
 Symbolic Z-matrix:
 Charge =  0 Multiplicity = 1

                         Standard orientation:
 ---------------------------------------------------------------------
 Center     Atomic      Atomic             Coordinates (Angstroms)
 Number     Number       Type             X           Y           Z
 ---------------------------------------------------------------------
      1          7           0       -1.107955   -0.165199   -0.023110
      2          6           0        0.182958    0.409622    0.036212
      3          1           0       -1.371641   -1.054825    0.219478
      4          1           0       -1.858549    0.493692   -0.166638
      5          8           0        1.206107   -0.269314   -0.026081
      6          1           0        0.239263    1.414309    0.100306
 ---------------------------------------------------------------------

 SCF Done:  E(RwB97X) =  -169.825357200     A.U. after   15 cycles

 The electronic state is 1-A.
 Alpha  occ. eigenvalues --  -19.18695 -14.43050 -10.37426  -1.15124  -1.02596
 Alpha  occ. eigenvalues --   -0.76169  -0.64937  -0.61945  -0.52127  -0.49862
 Alpha  occ. eigenvalues --   -0.36830  -0.35881
 Alpha virt. eigenvalues --    0.10872   0.18380   0.22664   0.28634   0.36089
 Alpha virt. eigenvalues --    0.41635   0.64478   0.66954   0.74413   0.78395
 Alpha virt. eigenvalues --    0.81016   0.83548   0.97370   0.99877   1.02583

 Mulliken charges:
               1
     1  N   -0.762187
     2  C    0.345744
     3  H    0.365152
     4  H    0.338189
     5  O   -0.440407
     6  H    0.153510
 Sum of Mulliken charges =   0.00000

 Dipole moment (field-independent basis, Debye):
    X=             -3.5868    Y=              1.2802    Z=              0.3787  Tot=              3.8272
 Quadrupole moment (field-independent basis, Debye-Ang):
   XX=            -17.3042   YY=            -14.7768   ZZ=            -18.2270
   XY=              1.3830   XZ=             -0.0582   YZ=             -0.7189

 Normal termination of Gaussian 16 at Wed Jun  5 16:58:08 2019.
