 Gaussian 16, Revision A.03,
 Gaussian 16:  ES64L-G16RevA.03 25-Dec-2016

 ----------------
 # 6-31g(d) wb97x
 ----------------

 ---------------------
 tmpdir/M2_ref_182.gjf
 ---------------------
 Symbolic Z-matrix:
 Charge =  0 Multiplicity = 1

                         Standard orientation:
 ---------------------------------------------------------------------
 Center     Atomic      Atomic             Coordinates (Angstroms)
 Number     Number       Type             X           Y           Z
 ---------------------------------------------------------------------
      1          6           0       -0.801400    0.484287   -0.000659
      2          6           0        0.573970    0.661828   -0.000136
      3          6           0        1.390835   -0.464219   -0.000513
      4          8           0       -1.251267   -0.660574   -0.000102
      5          1           0       -1.467697    1.340712    0.000338
      6          1           0        0.997381    1.661971    0.005653
      7          1           0        2.475229   -0.361706   -0.005053
      8          1           0        1.024785   -1.447765    0.007728
 ---------------------------------------------------------------------

 SCF Done:  E(RwB97X) =  -191.838740179     A.U. after   15 cycles

 The electronic state is 1-A.
 Alpha  occ. eigenvalues --  -19.20241 -10.34910 -10.30338 -10.28721  -1.15691
 Alpha  occ. eigenvalues --   -0.92041  -0.79376  -0.66617  -0.63006  -0.55572
 Alpha  occ. eigenvalues --   -0.51975  -0.50454  -0.49042  -0.36893  -0.35583
 Alpha virt. eigenvalues --    0.01102   0.17404   0.20481   0.23598   0.26624
 Alpha virt. eigenvalues --    0.29896   0.35048   0.41266   0.46290   0.62056
 Alpha virt. eigenvalues --    0.63697   0.68773   0.69094   0.70593   0.74606

 Mulliken charges:
               1
     1  C    0.212788
     2  C   -0.195899
     3  C   -0.300152
     4  O   -0.418054
     5  H    0.137769
     6  H    0.170834
     7  H    0.176193
     8  H    0.216521
 Sum of Mulliken charges =  -0.00000

 Dipole moment (field-independent basis, Debye):
    X=              2.0345    Y=              1.7425    Z=              0.0062  Tot=              2.6787
 Quadrupole moment (field-independent basis, Debye-Ang):
   XX=            -23.1882   YY=            -21.6880   ZZ=            -24.3255
   XY=             -3.3424   XZ=              0.0019   YZ=             -0.0005

 Normal termination of Gaussian 16 at Wed Jun  5 16:58:43 2019.
