 Gaussian 16, Revision A.03,
 Gaussian 16:  ES64L-G16RevA.03 25-Dec-2016

 ----------------
 # 6-31g(d) wb97x
 ----------------

 ---------------------
 tmpdir/M2_ref_152.gjf
 ---------------------
 Symbolic Z-matrix:
 Charge =  0 Multiplicity = 1

                         Standard orientation:
 ---------------------------------------------------------------------
 Center     Atomic      Atomic             Coordinates (Angstroms)
 Number     Number       Type             X           Y           Z
 ---------------------------------------------------------------------
      1          6           0       -1.358979   -0.371095   -0.000152
      2          7           0       -0.567954    0.698850   -0.000863
      3          6           0        0.754415    0.481375    0.002431
      4          1           0       -2.433225   -0.262973   -0.004587
      5          1           0       -1.046497   -1.383089    0.010284
      6          8           0        1.212908   -0.657897   -0.001735
      7          1           0        1.379520    1.355606    0.000551
 ---------------------------------------------------------------------

 SCF Done:  E(RwB97X) =  -207.878537438     A.U. after   16 cycles

 The electronic state is 1-A.
 Alpha  occ. eigenvalues --  -19.21460 -14.42970 -10.37801 -10.35621  -1.18300
 Alpha  occ. eigenvalues --   -1.05065  -0.83754  -0.70328  -0.63916  -0.57238
 Alpha  occ. eigenvalues --   -0.54557  -0.53782  -0.41608  -0.40454  -0.36536
 Alpha virt. eigenvalues --   -0.00974   0.15222   0.21903   0.23998   0.27590
 Alpha virt. eigenvalues --    0.33366   0.37204   0.46548   0.60153   0.64109
 Alpha virt. eigenvalues --    0.66679   0.68333   0.75211   0.77352   0.80412

 Mulliken charges:
               1
     1  C   -0.103124
     2  N   -0.359399
     3  C    0.295093
     4  H    0.195680
     5  H    0.209650
     6  O   -0.403941
     7  H    0.166041
 Sum of Mulliken charges =  -0.00000

 Dipole moment (field-independent basis, Debye):
    X=             -1.7942    Y=             -0.0507    Z=              0.0147  Tot=              1.7949
 Quadrupole moment (field-independent basis, Debye-Ang):
   XX=            -21.2059   YY=            -23.7687   ZZ=            -22.5521
   XY=              5.7894   XZ=              0.0018   YZ=             -0.0014

 Normal termination of Gaussian 16 at Wed Jun  5 16:58:36 2019.
