 Gaussian 16, Revision A.03,
 Gaussian 16:  ES64L-G16RevA.03 25-Dec-2016

 ----------------
 # 6-31g(d) wb97x
 ----------------

 --------------------
 tmpdir/M2_ref_84.gjf
 --------------------
 Symbolic Z-matrix:
 Charge =  0 Multiplicity = 1

                         Standard orientation:
 ---------------------------------------------------------------------
 Center     Atomic      Atomic             Coordinates (Angstroms)
 Number     Number       Type             X           Y           Z
 ---------------------------------------------------------------------
      1          6           0        0.550276   -0.014639   -0.001080
      2          1           0        1.085543    0.930611    0.002178
      3          1           0        1.043011   -0.890902    0.002395
      4          8           0       -0.678776    0.006015    0.000239
 ---------------------------------------------------------------------

 SCF Done:  E(RwB97X) =  -114.457808905     A.U. after   13 cycles

 The electronic state is 1-A.
 Alpha  occ. eigenvalues --  -19.22973 -10.35903  -1.16902  -0.77304  -0.62279
 Alpha  occ. eigenvalues --   -0.54869  -0.49405  -0.36854
 Alpha virt. eigenvalues --    0.05524   0.21821   0.29687   0.31658   0.62190
 Alpha virt. eigenvalues --    0.70458   0.74688   0.78155   0.96644   0.97893
 Alpha virt. eigenvalues --    1.06181   1.07925   1.17904   1.48312   1.60857

 Mulliken charges:
               1
     1  C    0.054316
     2  H    0.139457
     3  H    0.158159
     4  O   -0.351932
 Sum of Mulliken charges =  -0.00000

 Dipole moment (field-independent basis, Debye):
    X=              2.4593    Y=             -0.1044    Z=              0.0005  Tot=              2.4615
 Quadrupole moment (field-independent basis, Debye-Ang):
   XX=            -11.7804   YY=            -11.2190   ZZ=            -11.3457
   XY=             -0.0747   XZ=              0.0019   YZ=              0.0002

 Normal termination of Gaussian 16 at Wed Jun  5 16:57:58 2019.
