 Gaussian 16, Revision A.03,
 Gaussian 16:  ES64L-G16RevA.03 25-Dec-2016

 ----------------
 # 6-31g(d) wb97x
 ----------------

 ---------------------
 tmpdir/M2_ref_148.gjf
 ---------------------
 Symbolic Z-matrix:
 Charge =  0 Multiplicity = 1

                         Standard orientation:
 ---------------------------------------------------------------------
 Center     Atomic      Atomic             Coordinates (Angstroms)
 Number     Number       Type             X           Y           Z
 ---------------------------------------------------------------------
      1          7           0        1.132200   -0.181926   -0.000614
      2          6           0       -0.104582    0.415742   -0.001826
      3          7           0       -1.214410   -0.318270    0.001405
      4          1           0        1.421343   -1.120130   -0.002057
      5          1           0        1.864959    0.511336    0.008520
      6          1           0       -0.051296    1.473590    0.000295
      7          1           0       -2.032045    0.142125   -0.001338
 ---------------------------------------------------------------------

 SCF Done:  E(RwB97X) =  -149.936218402     A.U. after   15 cycles

 The electronic state is 1-A.
 Alpha  occ. eigenvalues --  -14.42269 -14.35071 -10.34215  -1.05779  -0.95646
 Alpha  occ. eigenvalues --   -0.74863  -0.65841  -0.58544  -0.54594  -0.46648
 Alpha  occ. eigenvalues --   -0.34315  -0.31834
 Alpha virt. eigenvalues --    0.12896   0.18308   0.21577   0.26681   0.29406
 Alpha virt. eigenvalues --    0.39903   0.46234   0.67095   0.67472   0.72410
 Alpha virt. eigenvalues --    0.74802   0.80180   0.84225   0.87605   0.91002

 Mulliken charges:
               1
     1  N   -0.726228
     2  C    0.190111
     3  N   -0.618596
     4  H    0.365040
     5  H    0.333921
     6  H    0.153696
     7  H    0.302057
 Sum of Mulliken charges =  -0.00000

 Dipole moment (field-independent basis, Debye):
    X=              2.2856    Y=              1.9509    Z=              0.0047  Tot=              3.0050
 Quadrupole moment (field-independent basis, Debye-Ang):
   XX=            -13.8764   YY=            -16.6832   ZZ=            -20.3618
   XY=             -2.7722   XZ=              0.0374   YZ=              0.0174

 Normal termination of Gaussian 16 at Wed Jun  5 16:58:30 2019.
