 Gaussian 16, Revision A.03,
 Gaussian 16:  ES64L-G16RevA.03 25-Dec-2016

 ----------------
 # 6-31g(d) wb97x
 ----------------

 ---------------------
 tmpdir/M2_ref_151.gjf
 ---------------------
 Symbolic Z-matrix:
 Charge =  0 Multiplicity = 1

                         Standard orientation:
 ---------------------------------------------------------------------
 Center     Atomic      Atomic             Coordinates (Angstroms)
 Number     Number       Type             X           Y           Z
 ---------------------------------------------------------------------
      1          7           0        0.697393    0.545980    0.001393
      2          6           0       -0.642029    0.502339   -0.001986
      3          8           0        1.259616   -0.468162   -0.000592
      4          8           0       -1.244798   -0.567630    0.000717
      5          1           0       -1.148125    1.450442    0.001171
 ---------------------------------------------------------------------

 SCF Done:  E(RwB97X) =  -243.698421837     A.U. after   24 cycles

 The electronic state is 1-A.
 Alpha  occ. eigenvalues --  -19.31754 -19.27104 -14.53783 -10.40555  -1.36576
 Alpha  occ. eigenvalues --   -1.20842  -0.96227  -0.72539  -0.67974  -0.63662
 Alpha  occ. eigenvalues --   -0.61974  -0.55495  -0.51276  -0.42945  -0.34810
 Alpha virt. eigenvalues --   -0.06555   0.11583   0.22031   0.30323   0.38333
 Alpha virt. eigenvalues --    0.49171   0.59345   0.64665   0.71306   0.77921
 Alpha virt. eigenvalues --    0.79706   0.80107   0.84799   0.90549   0.94182

 Mulliken charges:
               1
     1  N    0.036208
     2  C    0.283348
     3  O   -0.191344
     4  O   -0.316548
     5  H    0.188336
 Sum of Mulliken charges =  -0.00000

 Dipole moment (field-independent basis, Debye):
    X=             -0.7192    Y=              1.9234    Z=             -0.0092  Tot=              2.0535
 Quadrupole moment (field-independent basis, Debye-Ang):
   XX=            -24.4061   YY=            -21.8159   ZZ=            -19.5643
   XY=             -2.9160   XZ=             -0.0090   YZ=             -0.0141

 Normal termination of Gaussian 16 at Wed Jun  5 16:58:27 2019.
