 Gaussian 16, Revision A.03,
 Gaussian 16:  ES64L-G16RevA.03 25-Dec-2016

 ----------------
 # 6-31g(d) wb97x
 ----------------

 ---------------------
 tmpdir/M2_ref_107.gjf
 ---------------------
 Symbolic Z-matrix:
 Charge =  0 Multiplicity = 1

                         Standard orientation:
 ---------------------------------------------------------------------
 Center     Atomic      Atomic             Coordinates (Angstroms)
 Number     Number       Type             X           Y           Z
 ---------------------------------------------------------------------
      1          6           0        1.422593   -0.464349   -0.000477
      2          6           0        0.576458    0.644224   -0.005288
      3          6           0       -0.806377    0.477145   -0.000212
      4          1           0        2.492635   -0.337585    0.005951
      5          1           0        1.026096   -1.394713   -0.002767
      6          1           0        0.964252    1.685728    0.022207
      7          1           0       -1.466987    1.341650   -0.006367
      8          8           0       -1.271505   -0.654650    0.002105
 ---------------------------------------------------------------------

 SCF Done:  E(RwB97X) =  -191.836627440     A.U. after   15 cycles

 The electronic state is 1-A.
 Alpha  occ. eigenvalues --  -19.20439 -10.34989 -10.29942 -10.29009  -1.16122
 Alpha  occ. eigenvalues --   -0.92010  -0.79655  -0.66497  -0.62946  -0.55632
 Alpha  occ. eigenvalues --   -0.52736  -0.50635  -0.49069  -0.36976  -0.35667
 Alpha virt. eigenvalues --    0.01080   0.17422   0.20155   0.24036   0.26564
 Alpha virt. eigenvalues --    0.30447   0.35139   0.40945   0.46074   0.61996
 Alpha virt. eigenvalues --    0.63569   0.68268   0.68791   0.70662   0.74683

 Mulliken charges:
               1
     1  C   -0.301845
     2  C   -0.195134
     3  C    0.211847
     4  H    0.183126
     5  H    0.213900
     6  H    0.163912
     7  H    0.136926
     8  O   -0.412732
 Sum of Mulliken charges =  -0.00000

 Dipole moment (field-independent basis, Debye):
    X=              2.0217    Y=              1.7239    Z=              0.0150  Tot=              2.6569
 Quadrupole moment (field-independent basis, Debye-Ang):
   XX=            -23.1118   YY=            -21.8709   ZZ=            -24.3144
   XY=             -3.3185   XZ=              0.0438   YZ=              0.0377

 Normal termination of Gaussian 16 at Wed Jun  5 16:58:06 2019.
