 Gaussian 16, Revision A.03,
 Gaussian 16:  ES64L-G16RevA.03 25-Dec-2016

 ----------------
 # 6-31g(d) wb97x
 ----------------

 --------------------
 tmpdir/M2_ref_82.gjf
 --------------------
 Symbolic Z-matrix:
 Charge =  0 Multiplicity = 1

                         Standard orientation:
 ---------------------------------------------------------------------
 Center     Atomic      Atomic             Coordinates (Angstroms)
 Number     Number       Type             X           Y           Z
 ---------------------------------------------------------------------
      1          6           0       -1.427877   -0.468531   -0.002978
      2          6           0       -0.580996    0.640149   -0.005880
      3          6           0        0.798498    0.480477    0.006689
      4          1           0       -2.516320   -0.341463    0.034436
      5          1           0       -1.019981   -1.392853    0.002469
      6          1           0       -1.007782    1.641347   -0.017007
      7          1           0        1.463173    1.339616    0.016929
      8          8           0        1.292895   -0.644902   -0.002977
 ---------------------------------------------------------------------

 SCF Done:  E(RwB97X) =  -191.836791412     A.U. after   15 cycles

 The electronic state is 1-A.
 Alpha  occ. eigenvalues --  -19.20406 -10.35016 -10.30201 -10.28848  -1.15777
 Alpha  occ. eigenvalues --   -0.92214  -0.79592  -0.66587  -0.63289  -0.55451
 Alpha  occ. eigenvalues --   -0.52662  -0.50483  -0.49144  -0.37017  -0.35657
 Alpha virt. eigenvalues --    0.00950   0.17410   0.20177   0.23986   0.26777
 Alpha virt. eigenvalues --    0.30201   0.34947   0.41134   0.46506   0.61970
 Alpha virt. eigenvalues --    0.63136   0.68288   0.68783   0.70497   0.74633

 Mulliken charges:
               1
     1  C   -0.300567
     2  C   -0.193535
     3  C    0.209293
     4  H    0.182745
     5  H    0.213168
     6  H    0.167646
     7  H    0.137631
     8  O   -0.416381
 Sum of Mulliken charges =   0.00000

 Dipole moment (field-independent basis, Debye):
    X=             -2.1329    Y=              1.7272    Z=              0.0370  Tot=              2.7448
 Quadrupole moment (field-independent basis, Debye-Ang):
   XX=            -23.0922   YY=            -21.9195   ZZ=            -24.3126
   XY=              3.2305   XZ=             -0.0460   YZ=             -0.0281

 Normal termination of Gaussian 16 at Wed Jun  5 16:57:49 2019.
