 Gaussian 16, Revision A.03,
 Gaussian 16:  ES64L-G16RevA.03 25-Dec-2016

 ----------------
 # 6-31g(d) wb97x
 ----------------

 ---------------------
 tmpdir/M2_ref_113.gjf
 ---------------------
 Symbolic Z-matrix:
 Charge =  0 Multiplicity = 1

                         Standard orientation:
 ---------------------------------------------------------------------
 Center     Atomic      Atomic             Coordinates (Angstroms)
 Number     Number       Type             X           Y           Z
 ---------------------------------------------------------------------
      1          6           0       -0.546599   -0.014052   -0.001072
      2          1           0       -1.112752    0.915071    0.002184
      3          1           0       -1.022286   -0.903087    0.002332
      4          8           0        0.676829    0.009041    0.000240
 ---------------------------------------------------------------------

 SCF Done:  E(RwB97X) =  -114.458712231     A.U. after   14 cycles

 The electronic state is 1-A.
 Alpha  occ. eigenvalues --  -19.22986 -10.35888  -1.17214  -0.77187  -0.62237
 Alpha  occ. eigenvalues --   -0.55004  -0.49607  -0.36853
 Alpha virt. eigenvalues --    0.05671   0.21797   0.29671   0.31756   0.62138
 Alpha virt. eigenvalues --    0.70801   0.74480   0.78774   0.96203   0.97936
 Alpha virt. eigenvalues --    1.06012   1.07918   1.17875   1.48458   1.60990

 Mulliken charges:
               1
     1  C    0.055605
     2  H    0.138117
     3  H    0.155318
     4  O   -0.349040
 Sum of Mulliken charges =   0.00000

 Dipole moment (field-independent basis, Debye):
    X=             -2.4369    Y=             -0.1076    Z=              0.0004  Tot=              2.4393
 Quadrupole moment (field-independent basis, Debye-Ang):
   XX=            -11.7854   YY=            -11.2410   ZZ=            -11.3363
   XY=              0.0303   XZ=             -0.0018   YZ=              0.0001

 Normal termination of Gaussian 16 at Wed Jun  5 16:58:04 2019.
