 Gaussian 16, Revision A.03,
 Gaussian 16:  ES64L-G16RevA.03 25-Dec-2016

 ----------------
 # 6-31g(d) wb97x
 ----------------

 ---------------------
 tmpdir/M2_ref_140.gjf
 ---------------------
 Symbolic Z-matrix:
 Charge =  0 Multiplicity = 1

                         Standard orientation:
 ---------------------------------------------------------------------
 Center     Atomic      Atomic             Coordinates (Angstroms)
 Number     Number       Type             X           Y           Z
 ---------------------------------------------------------------------
      1          6           0       -1.239124   -0.233708    0.002319
      2          6           0       -0.057079    0.537740   -0.002994
      3          7           0        1.150938   -0.174038    0.000064
      4          1           0       -2.120423    0.250672    0.002244
      5          1           0       -1.207526   -1.324868    0.007879
      6          1           0       -0.100802    1.548116   -0.007631
      7          1           0        1.076932   -1.179733   -0.027015
      8          1           0        2.072472    0.099890    0.028126
 ---------------------------------------------------------------------

 SCF Done:  E(RwB97X) =  -133.873812007     A.U. after   15 cycles

 The electronic state is 1-A.
 Alpha  occ. eigenvalues --  -14.40409 -10.30311 -10.22764  -1.02308  -0.84137
 Alpha  occ. eigenvalues --   -0.70822  -0.64232  -0.56811  -0.49505  -0.48282
 Alpha  occ. eigenvalues --   -0.43329  -0.27442
 Alpha virt. eigenvalues --    0.13350   0.19594   0.23402   0.25530   0.29087
 Alpha virt. eigenvalues --    0.32390   0.42102   0.44072   0.61849   0.68371
 Alpha virt. eigenvalues --    0.68928   0.73690   0.76216   0.77701   0.85563

 Mulliken charges:
               1
     1  C   -0.445554
     2  C    0.089452
     3  N   -0.783230
     4  H    0.151489
     5  H    0.133444
     6  H    0.176222
     7  H    0.336969
     8  H    0.341208
 Sum of Mulliken charges =   0.00000

 Dipole moment (field-independent basis, Debye):
    X=              1.6637    Y=              0.0263    Z=              0.0051  Tot=              1.6639
 Quadrupole moment (field-independent basis, Debye-Ang):
   XX=            -15.9689   YY=            -15.5893   ZZ=            -22.2652
   XY=             -0.7481   XZ=              0.0699   YZ=              0.0592

 Normal termination of Gaussian 16 at Wed Jun  5 16:58:07 2019.
