 Gaussian 16, Revision A.03,
 Gaussian 16:  ES64L-G16RevA.03 25-Dec-2016

 ----------------
 # 6-31g(d) wb97x
 ----------------

 ---------------------
 tmpdir/M2_ref_106.gjf
 ---------------------
 Symbolic Z-matrix:
 Charge =  0 Multiplicity = 1

                         Standard orientation:
 ---------------------------------------------------------------------
 Center     Atomic      Atomic             Coordinates (Angstroms)
 Number     Number       Type             X           Y           Z
 ---------------------------------------------------------------------
      1          7           0        1.624183   -0.543741   -0.017908
      2          6           0        0.385843    0.139134    0.006424
      3          6           0       -0.771205   -0.636336    0.014279
      4          1           0        2.480543   -0.227534    0.276156
      5          1           0        1.557904   -1.534263   -0.198468
      6          8           0        0.313620    1.366274   -0.017661
      7          1           0       -0.707898   -1.722264    0.037995
      8          8           0       -1.862077   -0.082092    0.003344
 ---------------------------------------------------------------------

 SCF Done:  E(RwB97X) =  -283.103579749     A.U. after   18 cycles

 The electronic state is 1-A.
 Alpha  occ. eigenvalues --  -19.24742 -19.20707 -14.45044 -10.39410 -10.37885
 Alpha  occ. eigenvalues --   -1.20722  -1.16053  -1.05030  -0.86101  -0.69859
 Alpha  occ. eigenvalues --   -0.66879  -0.65997  -0.57047  -0.55940  -0.53697
 Alpha  occ. eigenvalues --   -0.47743  -0.39820  -0.38539  -0.37406
 Alpha virt. eigenvalues --   -0.00881   0.15862   0.17570   0.21389   0.25615
 Alpha virt. eigenvalues --    0.30975   0.36597   0.45128   0.52834   0.60184
 Alpha virt. eigenvalues --    0.63820   0.70547   0.71212   0.73967   0.77929

 Mulliken charges:
               1
     1  N   -0.802600
     2  C    0.546902
     3  C    0.163195
     4  H    0.372589
     5  H    0.345640
     6  O   -0.439090
     7  H    0.147472
     8  O   -0.334107
 Sum of Mulliken charges =  -0.00000

 Dipole moment (field-independent basis, Debye):
    X=              3.1920    Y=             -4.2583    Z=              0.3232  Tot=              5.3317
 Quadrupole moment (field-independent basis, Debye-Ang):
   XX=            -27.1774   YY=            -28.0667   ZZ=            -27.5379
   XY=             -1.5320   XZ=              1.0723   YZ=              0.5044

 Normal termination of Gaussian 16 at Wed Jun  5 16:57:56 2019.
