 Gaussian 16, Revision A.03,
 Gaussian 16:  ES64L-G16RevA.03 25-Dec-2016

 ----------------
 # 6-31g(d) wb97x
 ----------------

 ---------------------
 tmpdir/M2_ref_109.gjf
 ---------------------
 Symbolic Z-matrix:
 Charge =  0 Multiplicity = 1

                         Standard orientation:
 ---------------------------------------------------------------------
 Center     Atomic      Atomic             Coordinates (Angstroms)
 Number     Number       Type             X           Y           Z
 ---------------------------------------------------------------------
      1          6           0       -0.710041    0.486083    0.001302
      2          6           0        0.687034    0.491128   -0.001552
      3          6           0       -1.393743   -0.729419   -0.001483
      4          1           0       -1.249548    1.418827    0.005934
      5          6           0        1.411061   -0.720551    0.001595
      6          1           0        1.283684    1.417724   -0.005105
 ---------------------------------------------------------------------

 SCF Done:  E(RwB97X) =  -153.244847330     A.U. after   17 cycles

 The electronic state is 1-A.
 Alpha  occ. eigenvalues --  -10.36432 -10.36335 -10.31533 -10.31171  -0.97713
 Alpha  occ. eigenvalues --   -0.84392  -0.72026  -0.60412  -0.59446  -0.46540
 Alpha  occ. eigenvalues --   -0.42506  -0.40049  -0.33136
 Alpha virt. eigenvalues --   -0.03393   0.00503   0.02416   0.16577   0.20888
 Alpha virt. eigenvalues --    0.24837   0.34658   0.45729   0.47697   0.58501
 Alpha virt. eigenvalues --    0.60972   0.63033   0.66243   0.66503   0.69218

 Mulliken charges:
               1
     1  C   -0.263985
     2  C   -0.278294
     3  C    0.034980
     4  H    0.235402
     5  C    0.037439
     6  H    0.234458
 Sum of Mulliken charges =  -0.00000

 Dipole moment (field-independent basis, Debye):
    X=             -0.0430    Y=              3.4149    Z=              0.0012  Tot=              3.4151
 Quadrupole moment (field-independent basis, Debye-Ang):
   XX=            -24.1788   YY=            -23.4530   ZZ=            -25.5295
   XY=              0.0662   XZ=             -0.0361   YZ=              0.0017

 Normal termination of Gaussian 16 at Wed Jun  5 16:58:17 2019.
