 Gaussian 16, Revision A.03,
 Gaussian 16:  ES64L-G16RevA.03 25-Dec-2016

 ----------------
 # 6-31g(d) wb97x
 ----------------

 -----------------------
 tmpdir/M3_conf_0_88.gjf
 -----------------------
 Symbolic Z-matrix:
 Charge =  0 Multiplicity = 1

                         Standard orientation:
 ---------------------------------------------------------------------
 Center     Atomic      Atomic             Coordinates (Angstroms)
 Number     Number       Type             X           Y           Z
 ---------------------------------------------------------------------
      1          6           0        0.916377   -0.058430    0.000370
      2          7           0        2.318360   -0.040322    0.000746
      3          1           0        2.801884    0.844497    0.031958
      4          6           0        0.170864   -1.239997   -0.000166
      5          6           0        0.273376    1.198104   -0.000984
      6          6           0       -1.222179   -1.174556    0.006684
      7          1           0        0.675215   -2.192155   -0.006180
      8          6           0       -1.115616    1.221863   -0.004184
      9          6           0       -1.871385    0.057675    0.000950
     10          1           0       -1.622710    2.184464   -0.007246
     11          1           0       -2.958135    0.109339    0.008756
     12          1           0        2.982361   -0.735505   -0.028767
     13          1           0        0.842594    2.129548   -0.001048
     14          1           0       -1.858345   -2.085891   -0.018713
 ---------------------------------------------------------------------

 SCF Done:  E(RwB97X) =  -287.509817827     A.U. after   14 cycles

 The electronic state is 1-A.
 Alpha  occ. eigenvalues --  -14.40519 -10.31502 -10.26850 -10.26378 -10.25984
 Alpha  occ. eigenvalues --  -10.25812 -10.25111  -1.03744  -0.95892  -0.86353
 Alpha  occ. eigenvalues --   -0.84735  -0.72288  -0.71455  -0.63748  -0.60878
 Alpha  occ. eigenvalues --   -0.58286  -0.52981  -0.52466  -0.51618  -0.48772
 Alpha  occ. eigenvalues --   -0.44857  -0.43060  -0.40387  -0.33280  -0.27824
 Alpha virt. eigenvalues --    0.09404   0.11403   0.18793   0.19734   0.22930
 Alpha virt. eigenvalues --    0.26219   0.27315   0.28636   0.29218   0.30172
 Alpha virt. eigenvalues --    0.36484   0.40985   0.42268   0.45446   0.46553

 Mulliken charges:
               1
     1  C    0.352126
     2  N   -0.860303
     3  H    0.334583
     4  C   -0.206225
     5  C   -0.217726
     6  C   -0.163551
     7  H    0.148889
     8  C   -0.158180
     9  C   -0.173281
    10  H    0.151419
    11  H    0.149273
    12  H    0.339738
    13  H    0.147966
    14  H    0.155273
 Sum of Mulliken charges =  -0.00000

 Dipole moment (field-independent basis, Debye):
    X=              1.7350    Y=              0.1055    Z=             -0.0185  Tot=              1.7383
 Quadrupole moment (field-independent basis, Debye-Ang):
   XX=            -31.4075   YY=            -36.0534   ZZ=            -45.9191
   XY=              0.2694   XZ=             -0.0075   YZ=              0.1500

 Normal termination of Gaussian 16 at Fri Sep 22 11:11:55 2023.
