 Gaussian 16, Revision A.03,
 Gaussian 16:  ES64L-G16RevA.03 25-Dec-2016

 ----------------
 # 6-31g(d) wb97x
 ----------------

 -----------------------
 tmpdir/M3_conf_2_15.gjf
 -----------------------
 Symbolic Z-matrix:
 Charge =  0 Multiplicity = 1

                         Standard orientation:
 ---------------------------------------------------------------------
 Center     Atomic      Atomic             Coordinates (Angstroms)
 Number     Number       Type             X           Y           Z
 ---------------------------------------------------------------------
      1          6           0        1.254018   -0.233256   -0.034679
      2          6           0       -0.050367    0.544317    0.064488
      3          7           0       -1.214206   -0.306893   -0.119572
      4          1           0        1.355687   -0.635746   -1.060894
      5          1           0        2.097763    0.442888    0.147655
      6          1           0        1.276920   -1.069521    0.746649
      7          1           0       -0.073817    1.318921   -0.711378
      8          1           0       -0.092210    1.050861    1.049595
      9          1           0       -2.074351    0.228604   -0.085122
     10          1           0       -1.212462   -1.054115    0.571644
 ---------------------------------------------------------------------

 SCF Done:  E(RwB97X) =  -135.127121041     A.U. after   13 cycles

 The electronic state is 1-A.
 Alpha  occ. eigenvalues --  -14.37806 -10.28451 -10.26008  -1.00073  -0.85030
 Alpha  occ. eigenvalues --   -0.71432  -0.60000  -0.56535  -0.52660  -0.46569
 Alpha  occ. eigenvalues --   -0.46013  -0.44304  -0.32169
 Alpha virt. eigenvalues --    0.18052   0.22335   0.23505   0.26154   0.27052
 Alpha virt. eigenvalues --    0.28761   0.29764   0.33428   0.36335   0.63568
 Alpha virt. eigenvalues --    0.66003   0.68081   0.69442   0.78792   0.79297

 Mulliken charges:
               1
     1  C   -0.462542
     2  C   -0.141570
     3  N   -0.741473
     4  H    0.169640
     5  H    0.156618
     6  H    0.136710
     7  H    0.151455
     8  H    0.119174
     9  H    0.310475
    10  H    0.301514
 Sum of Mulliken charges =  -0.00000

 Dipole moment (field-independent basis, Debye):
    X=             -0.2111    Y=              0.5389    Z=              1.1422  Tot=              1.2804
 Quadrupole moment (field-independent basis, Debye-Ang):
   XX=            -19.0151   YY=            -20.2942   ZZ=            -21.2455
   XY=             -0.6303   XZ=             -1.6891   YZ=             -1.8001

 Normal termination of Gaussian 16 at Fri Sep 22 11:14:23 2023.
