 Gaussian 16, Revision A.03,
 Gaussian 16:  ES64L-G16RevA.03 25-Dec-2016

 ----------------
 # 6-31g(d) wb97x
 ----------------

 -----------------------
 tmpdir/M3_conf_0_75.gjf
 -----------------------
 Symbolic Z-matrix:
 Charge =  0 Multiplicity = 1

                         Standard orientation:
 ---------------------------------------------------------------------
 Center     Atomic      Atomic             Coordinates (Angstroms)
 Number     Number       Type             X           Y           Z
 ---------------------------------------------------------------------
      1          6           0        0.910208   -0.006548   -0.000162
      2          6           0        2.423355    0.006127    0.000582
      3          6           0        0.196174    1.185099   -0.003523
      4          6           0        0.183438   -1.216569    0.000616
      5          6           0       -1.191567    1.211279    0.000840
      6          1           0        0.745267    2.124377   -0.006102
      7          6           0       -1.213630   -1.208272   -0.000721
      8          6           0       -1.894542    0.008798    0.005851
      9          1           0       -1.722165    2.161101    0.008531
     10          1           0       -1.755305   -2.139700   -0.007118
     11          1           0        2.797507    1.033491   -0.006638
     12          1           0        2.840403   -0.497580   -0.881431
     13          1           0        2.840064   -0.483561    0.890990
     14          1           0        0.778031   -2.144514    0.001093
     15          1           0       -3.004415    0.066900   -0.020224
 ---------------------------------------------------------------------

 SCF Done:  E(RwB97X) =  -271.485385060     A.U. after   13 cycles

 The electronic state is 1-A.
 Alpha  occ. eigenvalues --  -10.27810 -10.27117 -10.27046 -10.27023 -10.26823
 Alpha  occ. eigenvalues --  -10.26511 -10.26455  -0.98281  -0.89566  -0.86730
 Alpha  occ. eigenvalues --   -0.80521  -0.72010  -0.69580  -0.61881  -0.56202
 Alpha  occ. eigenvalues --   -0.55972  -0.52657  -0.52110  -0.50524  -0.48382
 Alpha  occ. eigenvalues --   -0.46102  -0.43509  -0.43011  -0.33688  -0.32561
 Alpha virt. eigenvalues --    0.08565   0.09291   0.18678   0.21758   0.23509
 Alpha virt. eigenvalues --    0.25134   0.25642   0.27238   0.28640   0.30056
 Alpha virt. eigenvalues --    0.30708   0.33654   0.40944   0.41590   0.42247

 Mulliken charges:
               1
     1  C    0.133135
     2  C   -0.544116
     3  C   -0.203366
     4  C   -0.199044
     5  C   -0.150874
     6  H    0.146535
     7  C   -0.157660
     8  C   -0.168978
     9  H    0.160110
    10  H    0.161233
    11  H    0.167484
    12  H    0.174322
    13  H    0.174475
    14  H    0.151534
    15  H    0.155211
 Sum of Mulliken charges =  -0.00000

 Dipole moment (field-independent basis, Debye):
    X=              0.3293    Y=             -0.0035    Z=             -0.0143  Tot=              0.3296
 Quadrupole moment (field-independent basis, Debye-Ang):
   XX=            -37.4317   YY=            -37.9498   ZZ=            -45.0980
   XY=             -0.2381   XZ=              0.0560   YZ=              0.0187

 Normal termination of Gaussian 16 at Fri Sep 22 11:12:03 2023.
