 Gaussian 16, Revision A.03,
 Gaussian 16:  ES64L-G16RevA.03 25-Dec-2016

 ----------------
 # 6-31g(d) wb97x
 ----------------

 -----------------------
 tmpdir/M3_conf_2_36.gjf
 -----------------------
 Symbolic Z-matrix:
 Charge =  0 Multiplicity = 1

                         Standard orientation:
 ---------------------------------------------------------------------
 Center     Atomic      Atomic             Coordinates (Angstroms)
 Number     Number       Type             X           Y           Z
 ---------------------------------------------------------------------
      1          7           0       -0.743915    0.001846   -0.113915
      2          6           0        0.704493    0.000945    0.011174
      3          1           0        1.110786   -0.890425   -0.481474
      4          1           0       -1.129960    0.842491    0.310579
      5          1           0       -1.151408   -0.835994    0.285789
      6          1           0        1.018374   -0.034808    1.073915
      7          1           0        1.132656    0.900142   -0.458448
 ---------------------------------------------------------------------

 SCF Done:  E(RwB97X) =  -95.8216022345     A.U. after   13 cycles

 The electronic state is 1-A.
 Alpha  occ. eigenvalues --  -14.37969 -10.28046  -0.99489  -0.77398  -0.60183
 Alpha  occ. eigenvalues --   -0.53560  -0.50581  -0.47011  -0.32183
 Alpha virt. eigenvalues --    0.18471   0.24224   0.25485   0.27574   0.29070
 Alpha virt. eigenvalues --    0.34260   0.66060   0.67716   0.69770   0.84846
 Alpha virt. eigenvalues --    0.87378   0.89547   0.97733   1.02651   1.04760

 Mulliken charges:
               1
     1  N   -0.741516
     2  C   -0.328630
     3  H    0.162359
     4  H    0.307931
     5  H    0.310031
     6  H    0.127249
     7  H    0.162577
 Sum of Mulliken charges =  -0.00000

 Dipole moment (field-independent basis, Debye):
    X=              0.1627    Y=             -0.0202    Z=              1.3591  Tot=              1.3689
 Quadrupole moment (field-independent basis, Debye-Ang):
   XX=            -13.6015   YY=            -12.1405   ZZ=            -15.2709
   XY=              0.0718   XZ=             -2.0635   YZ=              0.0273

 Normal termination of Gaussian 16 at Fri Sep 22 11:14:23 2023.
