 Gaussian 16, Revision A.03,
 Gaussian 16:  ES64L-G16RevA.03 25-Dec-2016

 ----------------
 # 6-31g(d) wb97x
 ----------------

 -----------------------
 tmpdir/M3_conf_1_64.gjf
 -----------------------
 Symbolic Z-matrix:
 Charge =  0 Multiplicity = 1

                         Standard orientation:
 ---------------------------------------------------------------------
 Center     Atomic      Atomic             Coordinates (Angstroms)
 Number     Number       Type             X           Y           Z
 ---------------------------------------------------------------------
      1          6           0        0.531957    0.255470    0.087203
      2          6           0        2.032059    0.466376    0.148623
      3          6           0       -0.391447    1.299813   -0.003844
      4          6           0        0.069866   -1.060018    0.094219
      5          6           0       -1.752652    1.030617   -0.073234
      6          1           0       -0.053827    2.332746   -0.062573
      7          6           0       -1.292433   -1.324656    0.040584
      8          1           0        0.796602   -1.865448    0.150636
      9          6           0       -2.218531   -0.285003   -0.047551
     10          1           0       -2.475750    1.838962   -0.144353
     11          1           0       -1.642918   -2.354761    0.066398
     12          8           0        2.806652   -0.395026   -0.239389
     13          1           0        2.340480    1.409592    0.566103
     14          1           0       -3.290720   -0.496473   -0.137101
 ---------------------------------------------------------------------

 SCF Done:  E(RwB97X) =  -345.471517247     A.U. after   15 cycles

 The electronic state is 1-A.
 Alpha  occ. eigenvalues --  -19.22112 -10.36710 -10.29223 -10.29017 -10.28951
 Alpha  occ. eigenvalues --  -10.28634 -10.28437 -10.28383  -1.16953  -1.00002
 Alpha  occ. eigenvalues --   -0.89753  -0.88550  -0.77528  -0.73707  -0.69851
 Alpha  occ. eigenvalues --   -0.64344  -0.59406  -0.57132  -0.54871  -0.54315
 Alpha  occ. eigenvalues --   -0.53620  -0.51137  -0.47532  -0.46806  -0.44939
 Alpha  occ. eigenvalues --   -0.36366  -0.35387  -0.34969
 Alpha virt. eigenvalues --    0.02518   0.07474   0.12326   0.18345   0.22016
 Alpha virt. eigenvalues --    0.24659   0.25199   0.26121   0.28105   0.28554
 Alpha virt. eigenvalues --    0.35165   0.35798   0.39432   0.40202   0.43158

 Mulliken charges:
               1
     1  C    0.018396
     2  C    0.201442
     3  C   -0.190908
     4  C   -0.170354
     5  C   -0.164854
     6  H    0.166749
     7  C   -0.165097
     8  H    0.191155
     9  C   -0.149453
    10  H    0.167934
    11  H    0.168663
    12  O   -0.389273
    13  H    0.143236
    14  H    0.172363
 Sum of Mulliken charges =  -0.00000

 Dipole moment (field-independent basis, Debye):
    X=             -2.5375    Y=              1.3182    Z=              0.6570  Tot=              2.9340
 Quadrupole moment (field-independent basis, Debye-Ang):
   XX=            -48.6224   YY=            -39.9714   ZZ=            -48.1981
   XY=              3.8523   XZ=              2.4678   YZ=             -0.4135

 Normal termination of Gaussian 16 at Fri Sep 22 11:13:03 2023.
