 Gaussian 16, Revision A.03,
 Gaussian 16:  ES64L-G16RevA.03 25-Dec-2016

 ----------------
 # 6-31g(d) wb97x
 ----------------

 -----------------------
 tmpdir/M3_conf_1_80.gjf
 -----------------------
 Symbolic Z-matrix:
 Charge =  0 Multiplicity = 1

                         Standard orientation:
 ---------------------------------------------------------------------
 Center     Atomic      Atomic             Coordinates (Angstroms)
 Number     Number       Type             X           Y           Z
 ---------------------------------------------------------------------
      1          6           0        0.911070   -0.006552   -0.000193
      2          6           0        2.419017    0.006092    0.000542
      3          1           0        2.839788   -0.496801   -0.880172
      4          6           0        0.197025    1.185091   -0.003528
      5          6           0        0.184310   -1.216572    0.000556
      6          6           0       -1.190716    1.211262    0.000845
      7          1           0        0.746110    2.124367   -0.006078
      8          6           0       -1.212758   -1.208299   -0.000772
      9          6           0       -1.893680    0.008766    0.005840
     10          1           0       -1.721322    2.161072    0.008564
     11          1           0       -1.754425   -2.139729   -0.007191
     12          1           0        2.793159    1.033467   -0.006655
     13          1           0        2.835732   -0.483457    0.891021
     14          1           0        0.778911   -2.144518    0.001013
     15          1           0       -3.003554    0.066862   -0.020239
 ---------------------------------------------------------------------

 SCF Done:  E(RwB97X) =  -271.485394832     A.U. after   13 cycles

 The electronic state is 1-A.
 Alpha  occ. eigenvalues --  -10.27774 -10.27113 -10.27040 -10.27019 -10.26820
 Alpha  occ. eigenvalues --  -10.26470 -10.26450  -0.98295  -0.89626  -0.86729
 Alpha  occ. eigenvalues --   -0.80525  -0.72019  -0.69575  -0.61883  -0.56226
 Alpha  occ. eigenvalues --   -0.55989  -0.52684  -0.52108  -0.50564  -0.48356
 Alpha  occ. eigenvalues --   -0.46086  -0.43534  -0.43010  -0.33686  -0.32544
 Alpha virt. eigenvalues --    0.08559   0.09291   0.18687   0.21766   0.23496
 Alpha virt. eigenvalues --    0.25115   0.25654   0.27243   0.28645   0.30073
 Alpha virt. eigenvalues --    0.30740   0.33773   0.40941   0.41610   0.42261

 Mulliken charges:
               1
     1  C    0.134590
     2  C   -0.545269
     3  H    0.174375
     4  C   -0.203452
     5  C   -0.198979
     6  C   -0.150913
     7  H    0.146498
     8  C   -0.157727
     9  C   -0.168980
    10  H    0.160082
    11  H    0.161200
    12  H    0.167441
    13  H    0.174473
    14  H    0.151481
    15  H    0.155181
 Sum of Mulliken charges =  -0.00000

 Dipole moment (field-independent basis, Debye):
    X=              0.3309    Y=             -0.0040    Z=             -0.0142  Tot=              0.3313
 Quadrupole moment (field-independent basis, Debye-Ang):
   XX=            -37.4360   YY=            -37.9514   ZZ=            -45.0953
   XY=             -0.2410   XZ=              0.0531   YZ=              0.0172

 Normal termination of Gaussian 16 at Fri Sep 22 11:13:21 2023.
