 Gaussian 16, Revision A.03,
 Gaussian 16:  ES64L-G16RevA.03 25-Dec-2016

 ----------------
 # 6-31g(d) wb97x
 ----------------

 -----------------------
 tmpdir/M3_conf_0_62.gjf
 -----------------------
 Symbolic Z-matrix:
 Charge =  0 Multiplicity = 1

                         Standard orientation:
 ---------------------------------------------------------------------
 Center     Atomic      Atomic             Coordinates (Angstroms)
 Number     Number       Type             X           Y           Z
 ---------------------------------------------------------------------
      1          1           0        2.773369   -1.004076   -0.323302
      2          6           0        2.419452   -0.009244    0.012430
      3          6           0        0.905203   -0.003367   -0.024196
      4          6           0        0.202259    1.202332   -0.011608
      5          6           0        0.187940   -1.199938   -0.018061
      6          1           0        0.763094    2.133353   -0.014209
      7          6           0       -1.186981    1.210438   -0.001077
      8          1           0        0.724056   -2.147027   -0.033037
      9          6           0       -1.200607   -1.195846    0.008363
     10          1           0       -1.709193    2.164120    0.045653
     11          6           0       -1.900963    0.009784    0.002562
     12          1           0       -1.764710   -2.124029    0.025776
     13          1           0        2.893877    0.835828   -0.589594
     14          1           0        2.748836    0.100634    1.054607
     15          1           0       -2.987144   -0.043755    0.023627
 ---------------------------------------------------------------------

 SCF Done:  E(RwB97X) =  -271.484198250     A.U. after   13 cycles

 The electronic state is 1-A.
 Alpha  occ. eigenvalues --  -10.27767 -10.27097 -10.27018 -10.26829 -10.26736
 Alpha  occ. eigenvalues --  -10.26598 -10.26553  -0.98390  -0.89535  -0.86797
 Alpha  occ. eigenvalues --   -0.80336  -0.71991  -0.69578  -0.62017  -0.56312
 Alpha  occ. eigenvalues --   -0.55904  -0.52364  -0.52069  -0.50616  -0.48429
 Alpha  occ. eigenvalues --   -0.45983  -0.43537  -0.43028  -0.33702  -0.32517
 Alpha virt. eigenvalues --    0.08893   0.09042   0.18738   0.21381   0.23236
 Alpha virt. eigenvalues --    0.24684   0.26135   0.27308   0.28688   0.29527
 Alpha virt. eigenvalues --    0.30881   0.33607   0.40703   0.41940   0.43250

 Mulliken charges:
               1
     1  H    0.164842
     2  C   -0.536733
     3  C    0.130045
     4  C   -0.193662
     5  C   -0.198419
     6  H    0.150898
     7  C   -0.160450
     8  H    0.148790
     9  C   -0.156638
    10  H    0.157584
    11  C   -0.164918
    12  H    0.157581
    13  H    0.163327
    14  H    0.179587
    15  H    0.158166
 Sum of Mulliken charges =  -0.00000

 Dipole moment (field-independent basis, Debye):
    X=              0.2774    Y=             -0.0104    Z=              0.1318  Tot=              0.3072
 Quadrupole moment (field-independent basis, Debye-Ang):
   XX=            -37.7155   YY=            -37.8619   ZZ=            -45.1301
   XY=              0.2843   XZ=              0.0353   YZ=              0.0033

 Normal termination of Gaussian 16 at Fri Sep 22 11:11:33 2023.
