 Gaussian 16, Revision A.03,
 Gaussian 16:  ES64L-G16RevA.03 25-Dec-2016

 ----------------
 # 6-31g(d) wb97x
 ----------------

 -----------------------
 tmpdir/M3_conf_1_44.gjf
 -----------------------
 Symbolic Z-matrix:
 Charge =  0 Multiplicity = 1

                         Standard orientation:
 ---------------------------------------------------------------------
 Center     Atomic      Atomic             Coordinates (Angstroms)
 Number     Number       Type             X           Y           Z
 ---------------------------------------------------------------------
      1          6           0        0.698968   -0.000112    0.011287
      2          7           0       -0.735530    0.001869   -0.113296
      3          1           0        1.126183    0.892150   -0.472217
      4          1           0        1.095566   -0.902740   -0.466300
      5          1           0        1.003517   -0.016285    1.075655
      6          1           0       -1.119076    0.850004    0.303061
      7          1           0       -1.151287   -0.835539    0.285152
 ---------------------------------------------------------------------

 SCF Done:  E(RwB97X) =  -95.8210435081     A.U. after   14 cycles

 The electronic state is 1-A.
 Alpha  occ. eigenvalues --  -14.37892 -10.27892  -0.99771  -0.77242  -0.60370
 Alpha  occ. eigenvalues --   -0.53728  -0.50721  -0.46907  -0.32028
 Alpha virt. eigenvalues --    0.18420   0.24366   0.25366   0.27622   0.29119
 Alpha virt. eigenvalues --    0.34701   0.66211   0.67941   0.69845   0.84849
 Alpha virt. eigenvalues --    0.87358   0.89556   0.97806   1.02585   1.04668

 Mulliken charges:
               1
     1  C   -0.326344
     2  N   -0.739789
     3  H    0.161665
     4  H    0.161518
     5  H    0.125984
     6  H    0.307237
     7  H    0.309728
 Sum of Mulliken charges =   0.00000

 Dipole moment (field-independent basis, Debye):
    X=              0.1289    Y=             -0.0153    Z=              1.3413  Tot=              1.3476
 Quadrupole moment (field-independent basis, Debye-Ang):
   XX=            -13.6581   YY=            -12.1028   ZZ=            -15.2706
   XY=              0.0778   XZ=             -2.0431   YZ=              0.0223

 Normal termination of Gaussian 16 at Fri Sep 22 11:12:40 2023.
