 Gaussian 16, Revision A.03,
 Gaussian 16:  ES64L-G16RevA.03 25-Dec-2016

 ----------------
 # 6-31g(d) wb97x
 ----------------

 -----------------------
 tmpdir/M3_conf_1_22.gjf
 -----------------------
 Symbolic Z-matrix:
 Charge =  0 Multiplicity = 1

                         Standard orientation:
 ---------------------------------------------------------------------
 Center     Atomic      Atomic             Coordinates (Angstroms)
 Number     Number       Type             X           Y           Z
 ---------------------------------------------------------------------
      1          6           0        1.214127   -0.224648    0.019364
      2          7           0        0.000239    0.555350   -0.156796
      3          6           0       -1.212414   -0.227116    0.018603
      4          1           0        1.235295   -1.070353   -0.686231
      5          1           0        2.079541    0.424027   -0.161780
      6          1           0        1.296050   -0.617190    1.052792
      7          1           0       -0.018085    1.357653    0.462698
      8          1           0       -2.078611    0.419522   -0.165431
      9          1           0       -1.295771   -0.616975    1.053141
     10          1           0       -1.230373   -1.073554   -0.685413
 ---------------------------------------------------------------------

 SCF Done:  E(RwB97X) =  -135.120370216     A.U. after   13 cycles

 The electronic state is 1-A.
 Alpha  occ. eigenvalues --  -14.38595 -10.28056 -10.28008  -1.02055  -0.82114
 Alpha  occ. eigenvalues --   -0.74268  -0.59540  -0.54731  -0.53452  -0.48864
 Alpha  occ. eigenvalues --   -0.46874  -0.45914  -0.30821
 Alpha virt. eigenvalues --    0.18112   0.23115   0.25122   0.25469   0.26560
 Alpha virt. eigenvalues --    0.28953   0.29353   0.31429   0.36712   0.63061
 Alpha virt. eigenvalues --    0.64445   0.68196   0.69872   0.70731   0.84405

 Mulliken charges:
               1
     1  C   -0.321615
     2  N   -0.553685
     3  C   -0.323028
     4  H    0.160273
     5  H    0.162796
     6  H    0.123635
     7  H    0.306315
     8  H    0.162303
     9  H    0.123334
    10  H    0.159671
 Sum of Mulliken charges =  -0.00000

 Dipole moment (field-independent basis, Debye):
    X=             -0.0060    Y=             -0.1288    Z=              1.0171  Tot=              1.0253
 Quadrupole moment (field-independent basis, Debye-Ang):
   XX=            -19.5845   YY=            -19.8581   ZZ=            -21.6775
   XY=             -0.0431   XZ=             -0.0172   YZ=              2.1102

 Normal termination of Gaussian 16 at Fri Sep 22 11:12:31 2023.
