 Gaussian 16, Revision A.03,
 Gaussian 16:  ES64L-G16RevA.03 25-Dec-2016

 ----------------
 # 6-31g(d) wb97x
 ----------------

 -----------------------
 tmpdir/M3_conf_0_10.gjf
 -----------------------
 Symbolic Z-matrix:
 Charge =  0 Multiplicity = 1

                         Standard orientation:
 ---------------------------------------------------------------------
 Center     Atomic      Atomic             Coordinates (Angstroms)
 Number     Number       Type             X           Y           Z
 ---------------------------------------------------------------------
      1          6           0        0.000290    0.002296   -0.001503
      2          1           0        0.139596   -0.433359    0.993616
      3          1           0        0.355411    1.045083    0.001398
      4          1           0        0.612693   -0.583519   -0.716033
      5          1           0       -1.109442   -0.041981   -0.269964
 ---------------------------------------------------------------------

 SCF Done:  E(RwB97X) =  -40.4976933257     A.U. after   11 cycles

 The electronic state is 1-A.
 Alpha  occ. eigenvalues --  -10.25702  -0.81239  -0.49488  -0.49204  -0.48784
 Alpha virt. eigenvalues --    0.21090   0.26426   0.27066   0.27426   0.63979
 Alpha virt. eigenvalues --    0.64273   0.65606   0.98794   1.00683   1.01408
 Alpha virt. eigenvalues --    1.05055   1.20209   1.76017   1.76267   2.29827

 Mulliken charges:
               1
     1  C   -0.658813
     2  H    0.168075
     3  H    0.167577
     4  H    0.165364
     5  H    0.157798
 Sum of Mulliken charges =  -0.00000

 Dipole moment (field-independent basis, Debye):
    X=              0.0375    Y=             -0.0060    Z=              0.0276  Tot=              0.0469
 Quadrupole moment (field-independent basis, Debye-Ang):
   XX=             -8.2113   YY=             -8.3055   ZZ=             -8.3846
   XY=              0.0023   XZ=             -0.0152   YZ=             -0.0107

 Normal termination of Gaussian 16 at Fri Sep 22 11:10:36 2023.
