 Gaussian 16, Revision A.03,
 Gaussian 16:  ES64L-G16RevA.03 25-Dec-2016

 ----------------
 # 6-31g(d) wb97x
 ----------------

 -----------------------
 tmpdir/M3_conf_0_13.gjf
 -----------------------
 Symbolic Z-matrix:
 Charge =  0 Multiplicity = 1

                         Standard orientation:
 ---------------------------------------------------------------------
 Center     Atomic      Atomic             Coordinates (Angstroms)
 Number     Number       Type             X           Y           Z
 ---------------------------------------------------------------------
      1          6           0       -0.763378   -0.003253    0.005714
      2          6           0        0.758376    0.001418   -0.005138
      3          1           0        1.171573    0.344437    0.950971
      4          1           0       -1.115104   -0.617738    0.856673
      5          1           0       -1.131319    1.019135    0.152831
      6          1           0       -1.165288   -0.399223   -0.990279
      7          1           0        1.109570    0.715188   -0.777130
      8          1           0        1.160583   -1.050787   -0.196520
 ---------------------------------------------------------------------

 SCF Done:  E(RwB97X) =  -79.7972990697     A.U. after   12 cycles

 The electronic state is 1-A.
 Alpha  occ. eigenvalues --  -10.26134 -10.26067  -0.87834  -0.72530  -0.54404
 Alpha  occ. eigenvalues --   -0.53918  -0.46203  -0.43963  -0.43623
 Alpha virt. eigenvalues --    0.19287   0.25037   0.25264   0.25874   0.28189
 Alpha virt. eigenvalues --    0.28400   0.33718   0.61421   0.65826   0.66181
 Alpha virt. eigenvalues --    0.73929   0.75031   0.78865   0.97440   0.98876

 Mulliken charges:
               1
     1  C   -0.457132
     2  C   -0.459668
     3  H    0.157098
     4  H    0.155184
     5  H    0.157153
     6  H    0.147274
     7  H    0.153809
     8  H    0.146281
 Sum of Mulliken charges =   0.00000

 Dipole moment (field-independent basis, Debye):
    X=              0.0052    Y=              0.0656    Z=              0.0534  Tot=              0.0848
 Quadrupole moment (field-independent basis, Debye-Ang):
   XX=            -15.6515   YY=            -14.6763   ZZ=            -14.7034
   XY=             -0.0156   XZ=              0.0918   YZ=             -0.0272

 Normal termination of Gaussian 16 at Fri Sep 22 11:10:32 2023.
