 Gaussian 16, Revision A.03,
 Gaussian 16:  ES64L-G16RevA.03 25-Dec-2016

 ----------------
 # 6-31g(d) wb97x
 ----------------

 ----------------------
 tmpdir/M3_conf_2_3.gjf
 ----------------------
 Symbolic Z-matrix:
 Charge =  0 Multiplicity = 1

                         Standard orientation:
 ---------------------------------------------------------------------
 Center     Atomic      Atomic             Coordinates (Angstroms)
 Number     Number       Type             X           Y           Z
 ---------------------------------------------------------------------
      1          6           0       -0.700503   -0.000068    0.011719
      2          7           0        0.737826    0.001518   -0.112682
      3          1           0       -1.014472   -0.014494    1.073166
      4          1           0       -1.095057   -0.903046   -0.469175
      5          1           0       -1.126153    0.891509   -0.475552
      6          1           0        1.121712    0.851478    0.302340
      7          1           0        1.152206   -0.835661    0.287686
 ---------------------------------------------------------------------

 SCF Done:  E(RwB97X) =  -95.8212667257     A.U. after   14 cycles

 The electronic state is 1-A.
 Alpha  occ. eigenvalues --  -14.37941 -10.27935  -0.99664  -0.77261  -0.60312
 Alpha  occ. eigenvalues --   -0.53707  -0.50629  -0.46907  -0.32081
 Alpha virt. eigenvalues --    0.18417   0.24319   0.25372   0.27629   0.29073
 Alpha virt. eigenvalues --    0.34576   0.66171   0.67898   0.69843   0.84825
 Alpha virt. eigenvalues --    0.87351   0.89589   0.97772   1.02507   1.04632

 Mulliken charges:
               1
     1  C   -0.326573
     2  N   -0.740344
     3  H    0.126662
     4  H    0.161457
     5  H    0.161646
     6  H    0.307236
     7  H    0.309916
 Sum of Mulliken charges =   0.00000

 Dipole moment (field-independent basis, Debye):
    X=             -0.1343    Y=             -0.0118    Z=              1.3420  Tot=              1.3488
 Quadrupole moment (field-independent basis, Debye-Ang):
   XX=            -13.6476   YY=            -12.1084   ZZ=            -15.2705
   XY=             -0.0729   XZ=              2.0339   YZ=              0.0182

 Normal termination of Gaussian 16 at Fri Sep 22 11:14:18 2023.
