 Gaussian 16, Revision A.03,
 Gaussian 16:  ES64L-G16RevA.03 25-Dec-2016

 ----------------
 # 6-31g(d) wb97x
 ----------------

 -----------------------
 tmpdir/M3_conf_1_62.gjf
 -----------------------
 Symbolic Z-matrix:
 Charge =  0 Multiplicity = 1

                         Standard orientation:
 ---------------------------------------------------------------------
 Center     Atomic      Atomic             Coordinates (Angstroms)
 Number     Number       Type             X           Y           Z
 ---------------------------------------------------------------------
      1          1           0        2.775512   -1.003571   -0.323056
      2          6           0        2.419449   -0.009408    0.012387
      3          6           0        0.905206   -0.003455   -0.024221
      4          6           0        0.202316    1.202271   -0.011626
      5          6           0        0.187880   -1.199994   -0.018081
      6          1           0        0.763192    2.133272   -0.014230
      7          6           0       -1.186918    1.210449   -0.001078
      8          1           0        0.723948   -2.147105   -0.033064
      9          6           0       -1.200665   -1.195829    0.008361
     10          1           0       -1.709086    2.164152    0.045657
     11          6           0       -1.900964    0.009830    0.002567
     12          1           0       -1.764814   -2.123994    0.025775
     13          1           0        2.892649    0.836549   -0.589359
     14          1           0        2.747918    0.101156    1.054781
     15          1           0       -2.987139   -0.043655    0.023644
 ---------------------------------------------------------------------

 SCF Done:  E(RwB97X) =  -271.484218474     A.U. after   13 cycles

 The electronic state is 1-A.
 Alpha  occ. eigenvalues --  -10.27767 -10.27098 -10.27018 -10.26828 -10.26735
 Alpha  occ. eigenvalues --  -10.26596 -10.26554  -0.98390  -0.89535  -0.86796
 Alpha  occ. eigenvalues --   -0.80336  -0.71991  -0.69578  -0.62017  -0.56312
 Alpha  occ. eigenvalues --   -0.55904  -0.52365  -0.52069  -0.50613  -0.48435
 Alpha  occ. eigenvalues --   -0.45982  -0.43535  -0.43030  -0.33701  -0.32516
 Alpha virt. eigenvalues --    0.08894   0.09044   0.18739   0.21380   0.23236
 Alpha virt. eigenvalues --    0.24683   0.26140   0.27305   0.28688   0.29524
 Alpha virt. eigenvalues --    0.30876   0.33605   0.40703   0.41940   0.43250

 Mulliken charges:
               1
     1  H    0.164929
     2  C   -0.536766
     3  C    0.130087
     4  C   -0.193693
     5  C   -0.198436
     6  H    0.150884
     7  C   -0.160436
     8  H    0.148796
     9  C   -0.156629
    10  H    0.157589
    11  C   -0.164930
    12  H    0.157572
    13  H    0.163285
    14  H    0.179586
    15  H    0.158162
 Sum of Mulliken charges =  -0.00000

 Dipole moment (field-independent basis, Debye):
    X=              0.2779    Y=             -0.0105    Z=              0.1320  Tot=              0.3078
 Quadrupole moment (field-independent basis, Debye-Ang):
   XX=            -37.7151   YY=            -37.8617   ZZ=            -45.1302
   XY=              0.2808   XZ=              0.0350   YZ=              0.0035

 Normal termination of Gaussian 16 at Fri Sep 22 11:13:26 2023.
