 Gaussian 16, Revision A.03,
 Gaussian 16:  ES64L-G16RevA.03 25-Dec-2016

 ----------------
 # 6-31g(d) wb97x
 ----------------

 -----------------------
 tmpdir/M3_conf_2_68.gjf
 -----------------------
 Symbolic Z-matrix:
 Charge =  0 Multiplicity = 1

                         Standard orientation:
 ---------------------------------------------------------------------
 Center     Atomic      Atomic             Coordinates (Angstroms)
 Number     Number       Type             X           Y           Z
 ---------------------------------------------------------------------
      1          6           0        0.228345   -0.021071   -0.022119
      2          6           0        1.726172   -0.137231   -0.050899
      3          7           0        2.406140    0.990542    0.325737
      4          6           0       -0.455742    1.185843   -0.186413
      5          6           0       -0.501471   -1.196530    0.150298
      6          6           0       -1.844567    1.215310   -0.165063
      7          1           0        0.089152    2.109140   -0.373518
      8          6           0       -1.889333   -1.160866    0.186853
      9          1           0        0.039400   -2.131886    0.262659
     10          6           0       -2.576849    0.042364    0.026071
     11          1           0       -2.382261    2.151253   -0.292501
     12          1           0       -2.448383   -2.081826    0.341529
     13          8           0        2.271873   -1.180832   -0.375954
     14          1           0        1.852236    1.717219    0.753759
     15          1           0        3.385576    1.119349    0.394986
     16          1           0       -3.673021    0.062706    0.008198
 ---------------------------------------------------------------------

 SCF Done:  E(RwB97X) =  -400.841589194     A.U. after   15 cycles

 The electronic state is 1-A.
 Alpha  occ. eigenvalues --  -19.17609 -14.43278 -10.37745 -10.28839 -10.28768
 Alpha  occ. eigenvalues --  -10.28562 -10.28347 -10.28059 -10.27877  -1.15584
 Alpha  occ. eigenvalues --   -1.03481  -0.99487  -0.89154  -0.88186  -0.76774
 Alpha  occ. eigenvalues --   -0.73339  -0.69963  -0.66147  -0.62710  -0.59261
 Alpha  occ. eigenvalues --   -0.56647  -0.54806  -0.53407  -0.52098  -0.51346
 Alpha  occ. eigenvalues --   -0.47728  -0.46203  -0.44613  -0.36937  -0.35774
 Alpha  occ. eigenvalues --   -0.35092  -0.34110
 Alpha virt. eigenvalues --    0.04925   0.07624   0.15960   0.17291   0.19945
 Alpha virt. eigenvalues --    0.22499   0.24933   0.25581   0.27373   0.28763
 Alpha virt. eigenvalues --    0.29245   0.35521   0.39007   0.39629   0.40241

 Mulliken charges:
               1
     1  C    0.014835
     2  C    0.554860
     3  N   -0.788727
     4  C   -0.199391
     5  C   -0.172378
     6  C   -0.165611
     7  H    0.159744
     8  C   -0.166946
     9  H    0.195828
    10  C   -0.151659
    11  H    0.164848
    12  H    0.167755
    13  O   -0.490688
    14  H    0.345326
    15  H    0.362707
    16  H    0.169497
 Sum of Mulliken charges =  -0.00000

 Dipole moment (field-independent basis, Debye):
    X=             -1.3760    Y=              3.1793    Z=              1.4218  Tot=              3.7447
 Quadrupole moment (field-independent basis, Debye-Ang):
   XX=            -46.2259   YY=            -47.2417   ZZ=            -54.4049
   XY=              8.8747   XZ=              3.5160   YZ=             -0.5109

 Normal termination of Gaussian 16 at Fri Sep 22 11:15:05 2023.
