 Gaussian 16, Revision A.03,
 Gaussian 16:  ES64L-G16RevA.03 25-Dec-2016

 ----------------
 # 6-31g(d) wb97x
 ----------------

 -----------------------
 tmpdir/M3_conf_1_82.gjf
 -----------------------
 Symbolic Z-matrix:
 Charge =  0 Multiplicity = 1

                         Standard orientation:
 ---------------------------------------------------------------------
 Center     Atomic      Atomic             Coordinates (Angstroms)
 Number     Number       Type             X           Y           Z
 ---------------------------------------------------------------------
      1          1           0        0.177100   -0.596711    0.892846
      2          6           0       -0.010595    0.001727   -0.002791
      3          1           0        0.432657    0.993813    0.154983
      4          1           0       -1.081939    0.065460   -0.202171
      5          1           0        0.535753   -0.472921   -0.828912
 ---------------------------------------------------------------------

 SCF Done:  E(RwB97X) =  -40.4990918264     A.U. after   11 cycles

 The electronic state is 1-A.
 Alpha  occ. eigenvalues --  -10.24977  -0.81717  -0.50191  -0.49181  -0.48981
 Alpha virt. eigenvalues --    0.21592   0.27250   0.27417   0.27788   0.63873
 Alpha virt. eigenvalues --    0.64035   0.64456   1.01126   1.01443   1.02419
 Alpha virt. eigenvalues --    1.06897   1.20844   1.75773   1.75924   2.34314

 Mulliken charges:
               1
     1  H    0.166037
     2  C   -0.666981
     3  H    0.165467
     4  H    0.170240
     5  H    0.165237
 Sum of Mulliken charges =  -0.00000

 Dipole moment (field-independent basis, Debye):
    X=              0.0327    Y=             -0.0088    Z=              0.0134  Tot=              0.0365
 Quadrupole moment (field-independent basis, Debye-Ang):
   XX=             -8.1154   YY=             -8.3128   ZZ=             -8.3437
   XY=             -0.0029   XZ=              0.0101   YZ=             -0.0045

 Normal termination of Gaussian 16 at Fri Sep 22 11:13:41 2023.
