 Gaussian 16, Revision A.03,
 Gaussian 16:  ES64L-G16RevA.03 25-Dec-2016

 ----------------
 # 6-31g(d) wb97x
 ----------------

 -----------------------
 tmpdir/M3_conf_1_56.gjf
 -----------------------
 Symbolic Z-matrix:
 Charge =  0 Multiplicity = 1

                         Standard orientation:
 ---------------------------------------------------------------------
 Center     Atomic      Atomic             Coordinates (Angstroms)
 Number     Number       Type             X           Y           Z
 ---------------------------------------------------------------------
      1          6           0        0.000942    0.006121   -0.008598
      2          1           0       -0.069599   -0.206835    1.066955
      3          1           0        1.108488    0.061636   -0.276779
      4          1           0       -0.507532   -0.831168   -0.526350
      5          1           0       -0.537011    0.939640   -0.212237
 ---------------------------------------------------------------------

 SCF Done:  E(RwB97X) =  -40.4973097592     A.U. after   11 cycles

 The electronic state is 1-A.
 Alpha  occ. eigenvalues --  -10.25661  -0.81284  -0.49715  -0.49220  -0.48564
 Alpha virt. eigenvalues --    0.21088   0.26482   0.27052   0.27444   0.63876
 Alpha virt. eigenvalues --    0.64217   0.65732   0.98778   1.00602   1.01515
 Alpha virt. eigenvalues --    1.05437   1.20353   1.76048   1.76224   2.29466

 Mulliken charges:
               1
     1  C   -0.659941
     2  H    0.165594
     3  H    0.159354
     4  H    0.165305
     5  H    0.169688
 Sum of Mulliken charges =   0.00000

 Dipole moment (field-independent basis, Debye):
    X=             -0.0409    Y=             -0.0164    Z=              0.0500  Tot=              0.0667
 Quadrupole moment (field-independent basis, Debye-Ang):
   XX=             -8.1478   YY=             -8.2976   ZZ=             -8.4508
   XY=             -0.0207   XZ=              0.0190   YZ=             -0.0077

 Normal termination of Gaussian 16 at Fri Sep 22 11:12:40 2023.
