 Gaussian 16, Revision A.03,
 Gaussian 16:  ES64L-G16RevA.03 25-Dec-2016

 ----------------
 # 6-31g(d) wb97x
 ----------------

 -----------------------
 tmpdir/M3_conf_1_81.gjf
 -----------------------
 Symbolic Z-matrix:
 Charge =  0 Multiplicity = 1

                         Standard orientation:
 ---------------------------------------------------------------------
 Center     Atomic      Atomic             Coordinates (Angstroms)
 Number     Number       Type             X           Y           Z
 ---------------------------------------------------------------------
      1          6           0        0.911383   -0.006467   -0.000204
      2          6           0        2.419329    0.006210    0.000499
      3          1           0        2.824163   -0.485862    0.895061
      4          6           0        0.197311    1.185162   -0.003558
      5          6           0        0.184649   -1.216510    0.000395
      6          6           0       -1.190430    1.211300    0.000835
      7          1           0        0.746376    2.124445   -0.006158
      8          6           0       -1.212419   -1.208254   -0.000906
      9          6           0       -1.893368    0.008785    0.005881
     10          1           0       -1.721057    2.161098    0.008527
     11          1           0       -1.754065   -2.139703   -0.007441
     12          1           0        2.793449    1.033594   -0.006556
     13          1           0        2.836369   -0.497340   -0.881614
     14          1           0        0.779271   -2.144442    0.000706
     15          1           0       -3.003243    0.066855   -0.020175
 ---------------------------------------------------------------------

 SCF Done:  E(RwB97X) =  -271.485416736     A.U. after   13 cycles

 The electronic state is 1-A.
 Alpha  occ. eigenvalues --  -10.27759 -10.27110 -10.27034 -10.27012 -10.26814
 Alpha  occ. eigenvalues --  -10.26476 -10.26439  -0.98291  -0.89634  -0.86724
 Alpha  occ. eigenvalues --   -0.80516  -0.72016  -0.69557  -0.61865  -0.56233
 Alpha  occ. eigenvalues --   -0.55976  -0.52763  -0.52103  -0.50517  -0.48383
 Alpha  occ. eigenvalues --   -0.46094  -0.43505  -0.43008  -0.33682  -0.32536
 Alpha virt. eigenvalues --    0.08565   0.09304   0.18687   0.21760   0.23491
 Alpha virt. eigenvalues --    0.25123   0.25671   0.27237   0.28644   0.30070
 Alpha virt. eigenvalues --    0.30715   0.33750   0.40944   0.41594   0.42258

 Mulliken charges:
               1
     1  C    0.133233
     2  C   -0.543791
     3  H    0.174465
     4  C   -0.203400
     5  C   -0.198886
     6  C   -0.150882
     7  H    0.146371
     8  C   -0.157661
     9  C   -0.169057
    10  H    0.160019
    11  H    0.161168
    12  H    0.167486
    13  H    0.174485
    14  H    0.151325
    15  H    0.155125
 Sum of Mulliken charges =   0.00000

 Dipole moment (field-independent basis, Debye):
    X=              0.3317    Y=             -0.0039    Z=             -0.0142  Tot=              0.3320
 Quadrupole moment (field-independent basis, Debye-Ang):
   XX=            -37.4759   YY=            -37.9527   ZZ=            -45.0796
   XY=             -0.2326   XZ=              0.0461   YZ=              0.0137

 Normal termination of Gaussian 16 at Fri Sep 22 11:13:39 2023.
