 Gaussian 16, Revision A.03,
 Gaussian 16:  ES64L-G16RevA.03 25-Dec-2016

 ----------------
 # 6-31g(d) wb97x
 ----------------

 ----------------------
 tmpdir/M3_conf_2_6.gjf
 ----------------------
 Symbolic Z-matrix:
 Charge =  0 Multiplicity = 1

                         Standard orientation:
 ---------------------------------------------------------------------
 Center     Atomic      Atomic             Coordinates (Angstroms)
 Number     Number       Type             X           Y           Z
 ---------------------------------------------------------------------
      1          1           0       -1.035662   -0.014456    1.068993
      2          6           0       -0.706741   -0.000055    0.012086
      3          7           0        0.744317    0.001487   -0.111401
      4          1           0       -1.094474   -0.902978   -0.474442
      5          1           0       -1.125399    0.891672   -0.480938
      6          1           0        1.127659    0.851413    0.304183
      7          1           0        1.158102   -0.835727    0.289496
 ---------------------------------------------------------------------

 SCF Done:  E(RwB97X) =  -95.8215961051     A.U. after   14 cycles

 The electronic state is 1-A.
 Alpha  occ. eigenvalues --  -14.38014 -10.28040  -0.99340  -0.77355  -0.60151
 Alpha  occ. eigenvalues --   -0.53580  -0.50404  -0.47015  -0.32180
 Alpha virt. eigenvalues --    0.18425   0.24218   0.25478   0.27616   0.29008
 Alpha virt. eigenvalues --    0.34135   0.66044   0.67725   0.69778   0.84806
 Alpha virt. eigenvalues --    0.87364   0.89634   0.97728   1.02426   1.04643

 Mulliken charges:
               1
     1  H    0.128478
     2  C   -0.327338
     3  N   -0.743090
     4  H    0.162165
     5  H    0.162308
     6  H    0.307419
     7  H    0.310058
 Sum of Mulliken charges =  -0.00000

 Dipole moment (field-independent basis, Debye):
    X=             -0.1558    Y=             -0.0119    Z=              1.3453  Tot=              1.3543
 Quadrupole moment (field-independent basis, Debye-Ang):
   XX=            -13.6145   YY=            -12.1177   ZZ=            -15.2664
   XY=             -0.0722   XZ=              2.0207   YZ=              0.0180

 Normal termination of Gaussian 16 at Fri Sep 22 11:14:16 2023.
