 Gaussian 16, Revision A.03,
 Gaussian 16:  ES64L-G16RevA.03 25-Dec-2016

 ----------------
 # 6-31g(d) wb97x
 ----------------

 -----------------------
 tmpdir/M3_conf_0_69.gjf
 -----------------------
 Symbolic Z-matrix:
 Charge =  0 Multiplicity = 1

                         Standard orientation:
 ---------------------------------------------------------------------
 Center     Atomic      Atomic             Coordinates (Angstroms)
 Number     Number       Type             X           Y           Z
 ---------------------------------------------------------------------
      1          8           0       -1.185369   -0.269457    0.013730
      2          6           0       -0.168360    0.406895   -0.014367
      3          7           0        1.078260   -0.160522   -0.022062
      4          1           0       -0.216438    1.493517   -0.019668
      5          1           0        1.849511    0.466938    0.149835
      6          1           0        1.312215   -1.122515    0.000631
 ---------------------------------------------------------------------

 SCF Done:  E(RwB97X) =  -169.838770991     A.U. after   16 cycles

 The electronic state is 1-A.
 Alpha  occ. eigenvalues --  -19.17971 -14.43722 -10.37493  -1.15408  -1.03244
 Alpha  occ. eigenvalues --   -0.75221  -0.65702  -0.60531  -0.51598  -0.50735
 Alpha  occ. eigenvalues --   -0.36990  -0.35427
 Alpha virt. eigenvalues --    0.12273   0.18047   0.20791   0.27603   0.36352
 Alpha virt. eigenvalues --    0.44343   0.64244   0.65769   0.75124   0.79621
 Alpha virt. eigenvalues --    0.81076   0.83184   0.95842   0.98193   0.99642

 Mulliken charges:
               1
     1  O   -0.451013
     2  C    0.340758
     3  N   -0.738061
     4  H    0.140817
     5  H    0.339794
     6  H    0.367705
 Sum of Mulliken charges =  -0.00000

 Dipole moment (field-independent basis, Debye):
    X=              3.7487    Y=              1.0433    Z=              0.2723  Tot=              3.9007
 Quadrupole moment (field-independent basis, Debye-Ang):
   XX=            -17.3660   YY=            -14.6577   ZZ=            -18.3905
   XY=             -1.5291   XZ=              0.6944   YZ=              0.1416

 Normal termination of Gaussian 16 at Fri Sep 22 11:11:26 2023.
