 Gaussian 16, Revision A.03,
 Gaussian 16:  ES64L-G16RevA.03 25-Dec-2016

 ----------------
 # 6-31g(d) wb97x
 ----------------

 -----------------------
 tmpdir/M3_conf_2_46.gjf
 -----------------------
 Symbolic Z-matrix:
 Charge =  0 Multiplicity = 1

                         Standard orientation:
 ---------------------------------------------------------------------
 Center     Atomic      Atomic             Coordinates (Angstroms)
 Number     Number       Type             X           Y           Z
 ---------------------------------------------------------------------
      1          6           0        0.760983    0.001152   -0.004251
      2          6           0       -0.760193    0.000609    0.004157
      3          1           0       -1.121311    0.068946    1.048583
      4          1           0        1.163042    0.992058    0.398508
      5          1           0        1.129910   -0.813042    0.630812
      6          1           0        1.115757   -0.189035   -1.037291
      7          1           0       -1.130040   -0.940722   -0.416837
      8          1           0       -1.162098    0.871225   -0.623215
 ---------------------------------------------------------------------

 SCF Done:  E(RwB97X) =  -79.7972798143     A.U. after   11 cycles

 The electronic state is 1-A.
 Alpha  occ. eigenvalues --  -10.26094 -10.26076  -0.87878  -0.72444  -0.54395
 Alpha  occ. eigenvalues --   -0.54054  -0.46046  -0.43969  -0.43702
 Alpha virt. eigenvalues --    0.19240   0.25203   0.25260   0.25822   0.28137
 Alpha virt. eigenvalues --    0.28389   0.33640   0.61334   0.66079   0.66189
 Alpha virt. eigenvalues --    0.73917   0.74712   0.78880   0.97465   0.98825

 Mulliken charges:
               1
     1  C   -0.457761
     2  C   -0.457873
     3  H    0.154639
     4  H    0.146961
     5  H    0.156743
     6  H    0.154474
     7  H    0.157159
     8  H    0.145658
 Sum of Mulliken charges =   0.00000

 Dipole moment (field-independent basis, Debye):
    X=             -0.0000    Y=             -0.0850    Z=              0.0132  Tot=              0.0860
 Quadrupole moment (field-independent basis, Debye-Ang):
   XX=            -15.7157   YY=            -14.6761   ZZ=            -14.6687
   XY=              0.0098   XZ=              0.0372   YZ=              0.0128

 Normal termination of Gaussian 16 at Fri Sep 22 11:14:36 2023.
