 Gaussian 16, Revision A.03,
 Gaussian 16:  ES64L-G16RevA.03 25-Dec-2016

 ----------------
 # 6-31g(d) wb97x
 ----------------

 -----------------------
 tmpdir/M3_conf_1_12.gjf
 -----------------------
 Symbolic Z-matrix:
 Charge =  0 Multiplicity = 1

                         Standard orientation:
 ---------------------------------------------------------------------
 Center     Atomic      Atomic             Coordinates (Angstroms)
 Number     Number       Type             X           Y           Z
 ---------------------------------------------------------------------
      1          6           0       -0.709104    0.000574    0.011119
      2          7           0        0.747573    0.001979   -0.113521
      3          1           0       -1.138064    0.896724   -0.464729
      4          1           0       -1.104096   -0.897606   -0.478564
      5          1           0       -1.023934   -0.027251    1.073607
      6          1           0        1.155004   -0.834040    0.290037
      7          1           0        1.132705    0.844870    0.307580
 ---------------------------------------------------------------------

 SCF Done:  E(RwB97X) =  -95.8215770698     A.U. after   13 cycles

 The electronic state is 1-A.
 Alpha  occ. eigenvalues --  -14.37990 -10.28121  -0.99280  -0.77434  -0.60086
 Alpha  occ. eigenvalues --   -0.53448  -0.50451  -0.47109  -0.32211
 Alpha virt. eigenvalues --    0.18456   0.24169   0.25553   0.27543   0.29034
 Alpha virt. eigenvalues --    0.33942   0.65980   0.67656   0.69693   0.84835
 Alpha virt. eigenvalues --    0.87398   0.89510   0.97725   1.02551   1.04757

 Mulliken charges:
               1
     1  C   -0.328838
     2  N   -0.743486
     3  H    0.163047
     4  H    0.162914
     5  H    0.128526
     6  H    0.310068
     7  H    0.307769
 Sum of Mulliken charges =  -0.00000

 Dipole moment (field-independent basis, Debye):
    X=             -0.1786    Y=             -0.0150    Z=              1.3633  Tot=              1.3750
 Quadrupole moment (field-independent basis, Debye-Ang):
   XX=            -13.5965   YY=            -12.1366   ZZ=            -15.2684
   XY=             -0.0735   XZ=              2.0598   YZ=              0.0217

 Normal termination of Gaussian 16 at Fri Sep 22 11:12:21 2023.
