 Gaussian 16, Revision A.03,
 Gaussian 16:  ES64L-G16RevA.03 25-Dec-2016

 ----------------
 # 6-31g(d) wb97x
 ----------------

 -----------------------
 tmpdir/M3_conf_0_41.gjf
 -----------------------
 Symbolic Z-matrix:
 Charge =  0 Multiplicity = 1

                         Standard orientation:
 ---------------------------------------------------------------------
 Center     Atomic      Atomic             Coordinates (Angstroms)
 Number     Number       Type             X           Y           Z
 ---------------------------------------------------------------------
      1          1           0        1.134337   -0.214977   -1.026487
      2          6           0        0.760738    0.000980   -0.005212
      3          6           0       -0.760439    0.000297    0.002736
      4          1           0        1.152258    1.003712    0.378206
      5          1           0        1.121226   -0.794793    0.657439
      6          1           0       -1.129937   -0.951913   -0.393363
      7          1           0       -1.117334    0.096253    1.046442
      8          1           0       -1.162343    0.854058   -0.647378
 ---------------------------------------------------------------------

 SCF Done:  E(RwB97X) =  -79.7972600620     A.U. after   11 cycles

 The electronic state is 1-A.
 Alpha  occ. eigenvalues --  -10.26093 -10.26075  -0.87882  -0.72434  -0.54399
 Alpha  occ. eigenvalues --   -0.54069  -0.46020  -0.44005  -0.43679
 Alpha virt. eigenvalues --    0.19230   0.25233   0.25311   0.25765   0.28076
 Alpha virt. eigenvalues --    0.28434   0.33629   0.61327   0.66026   0.66277
 Alpha virt. eigenvalues --    0.74063   0.74518   0.78878   0.97454   0.98827

 Mulliken charges:
               1
     1  H    0.154878
     2  C   -0.457845
     3  C   -0.457647
     4  H    0.146627
     5  H    0.156474
     6  H    0.157089
     7  H    0.154843
     8  H    0.145581
 Sum of Mulliken charges =   0.00000

 Dipole moment (field-independent basis, Debye):
    X=              0.0007    Y=             -0.0843    Z=              0.0194  Tot=              0.0866
 Quadrupole moment (field-independent basis, Debye-Ang):
   XX=            -15.7251   YY=            -14.6782   ZZ=            -14.6616
   XY=              0.0029   XZ=              0.0103   YZ=              0.0146

 Normal termination of Gaussian 16 at Fri Sep 22 11:10:46 2023.
