 Gaussian 16, Revision A.03,
 Gaussian 16:  ES64L-G16RevA.03 25-Dec-2016

 ----------------
 # 6-31g(d) wb97x
 ----------------

 -----------------------
 tmpdir/M3_conf_2_41.gjf
 -----------------------
 Symbolic Z-matrix:
 Charge =  0 Multiplicity = 1

                         Standard orientation:
 ---------------------------------------------------------------------
 Center     Atomic      Atomic             Coordinates (Angstroms)
 Number     Number       Type             X           Y           Z
 ---------------------------------------------------------------------
      1          1           0        1.088430   -0.167318   -1.049240
      2          6           0        0.760736    0.001253   -0.003575
      3          6           0       -0.760426    0.000986    0.006379
      4          1           0        1.177601    0.981209    0.410766
      5          1           0        1.141687   -0.828506    0.603623
      6          1           0       -1.131009   -0.930608   -0.435121
      7          1           0       -1.115890    0.046184    1.053995
      8          1           0       -1.162680    0.885606   -0.600848
 ---------------------------------------------------------------------

 SCF Done:  E(RwB97X) =  -79.7970551246     A.U. after   12 cycles

 The electronic state is 1-A.
 Alpha  occ. eigenvalues --  -10.26093 -10.26074  -0.87887  -0.72432  -0.54433
 Alpha  occ. eigenvalues --   -0.54039  -0.46069  -0.43890  -0.43735
 Alpha virt. eigenvalues --    0.19233   0.25148   0.25188   0.25954   0.28200
 Alpha virt. eigenvalues --    0.28316   0.33628   0.61329   0.66062   0.66255
 Alpha virt. eigenvalues --    0.73596   0.75008   0.78889   0.97462   0.98809

 Mulliken charges:
               1
     1  H    0.153697
     2  C   -0.457861
     3  C   -0.457856
     4  H    0.147358
     5  H    0.157043
     6  H    0.157381
     7  H    0.154296
     8  H    0.145943
 Sum of Mulliken charges =  -0.00000

 Dipole moment (field-independent basis, Debye):
    X=              0.0002    Y=             -0.0850    Z=              0.0059  Tot=              0.0852
 Quadrupole moment (field-independent basis, Debye-Ang):
   XX=            -15.7216   YY=            -14.6707   ZZ=            -14.6724
   XY=              0.0184   XZ=              0.0907   YZ=              0.0112

 Normal termination of Gaussian 16 at Fri Sep 22 11:14:29 2023.
