 Gaussian 16, Revision A.03,
 Gaussian 16:  ES64L-G16RevA.03 25-Dec-2016

 ----------------
 # 6-31g(d) wb97x
 ----------------

 -----------------------
 tmpdir/M3_conf_1_74.gjf
 -----------------------
 Symbolic Z-matrix:
 Charge =  0 Multiplicity = 1

                         Standard orientation:
 ---------------------------------------------------------------------
 Center     Atomic      Atomic             Coordinates (Angstroms)
 Number     Number       Type             X           Y           Z
 ---------------------------------------------------------------------
      1          1           0       -2.720084    0.877015   -0.210652
      2          7           0       -2.331914   -0.034785   -0.020847
      3          6           0       -0.917914   -0.048305    0.009752
      4          6           0       -0.185341   -1.234897   -0.006409
      5          6           0       -0.267158    1.183225    0.012265
      6          1           0       -0.686416   -2.188725   -0.018667
      7          6           0        1.210793   -1.183017   -0.007106
      8          1           0       -0.838110    2.109264    0.027313
      9          6           0        1.120426    1.216623    0.005708
     10          6           0        1.884902    0.056705   -0.000455
     11          1           0        1.628570    2.178665    0.008998
     12          1           0       -2.954666   -0.702909    0.271828
     13          1           0        1.844789   -2.084466   -0.013980
     14          1           0        2.975069    0.112656   -0.001434
 ---------------------------------------------------------------------

 SCF Done:  E(RwB97X) =  -287.510694030     A.U. after   14 cycles

 The electronic state is 1-A.
 Alpha  occ. eigenvalues --  -14.40228 -10.31056 -10.27041 -10.26484 -10.25965
 Alpha  occ. eigenvalues --  -10.25870 -10.25587  -1.03529  -0.95832  -0.86429
 Alpha  occ. eigenvalues --   -0.84670  -0.72450  -0.71068  -0.63716  -0.61492
 Alpha  occ. eigenvalues --   -0.58050  -0.53120  -0.52872  -0.51719  -0.48430
 Alpha  occ. eigenvalues --   -0.45096  -0.43124  -0.39831  -0.33333  -0.28206
 Alpha virt. eigenvalues --    0.09296   0.10988   0.18782   0.19978   0.23135
 Alpha virt. eigenvalues --    0.26105   0.27159   0.28417   0.29496   0.30677
 Alpha virt. eigenvalues --    0.36297   0.40692   0.42550   0.45513   0.45886

 Mulliken charges:
               1
     1  H    0.335265
     2  N   -0.850618
     3  C    0.336840
     4  C   -0.201721
     5  C   -0.217749
     6  H    0.150828
     7  C   -0.168149
     8  H    0.146138
     9  C   -0.158946
    10  C   -0.173405
    11  H    0.151761
    12  H    0.341432
    13  H    0.155694
    14  H    0.152629
 Sum of Mulliken charges =  -0.00000

 Dipole moment (field-independent basis, Debye):
    X=             -1.4448    Y=              0.1577    Z=              0.2640  Tot=              1.4772
 Quadrupole moment (field-independent basis, Debye-Ang):
   XX=            -32.4104   YY=            -36.0587   ZZ=            -45.6409
   XY=             -0.3681   XZ=             -0.8854   YZ=             -0.8057

 Normal termination of Gaussian 16 at Fri Sep 22 11:13:40 2023.
