 Gaussian 16, Revision A.03,
 Gaussian 16:  ES64L-G16RevA.03 25-Dec-2016

 ----------------
 # 6-31g(d) wb97x
 ----------------

 -----------------------
 tmpdir/M3_conf_0_73.gjf
 -----------------------
 Symbolic Z-matrix:
 Charge =  0 Multiplicity = 1

                         Standard orientation:
 ---------------------------------------------------------------------
 Center     Atomic      Atomic             Coordinates (Angstroms)
 Number     Number       Type             X           Y           Z
 ---------------------------------------------------------------------
      1          6           0        2.624726   -0.231336   -0.010346
      2          7           0        1.426584   -0.852610   -0.243915
      3          6           0        0.103571   -0.369202   -0.115509
      4          6           0       -0.205115    0.987210   -0.214346
      5          6           0       -0.905312   -1.311028    0.072348
      6          1           0        0.572440    1.716760   -0.369844
      7          6           0       -1.535623    1.400611   -0.110803
      8          1           0       -0.664867   -2.369135    0.151935
      9          6           0       -2.222428   -0.883587    0.167373
     10          6           0       -2.568687    0.459173    0.083720
     11          1           0       -3.010204   -1.619264    0.315421
     12          1           0        3.502190   -0.854107   -0.169391
     13          8           0        2.732303    0.926587    0.364095
     14          1           0        1.464219   -1.854330   -0.358894
     15          1           0       -1.842458    2.457181   -0.175076
     16          1           0       -3.612632    0.767425    0.165877
 ---------------------------------------------------------------------

 SCF Done:  E(RwB97X) =  -400.830641399     A.U. after   16 cycles

 The electronic state is 1-A.
 Alpha  occ. eigenvalues --  -19.19256 -14.45831 -10.38169 -10.32577 -10.28127
 Alpha  occ. eigenvalues --  -10.28093 -10.27912 -10.27422 -10.27254  -1.16751
 Alpha  occ. eigenvalues --   -1.07475  -0.98205  -0.87963  -0.87790  -0.77139
 Alpha  occ. eigenvalues --   -0.74216  -0.69554  -0.66437  -0.63062  -0.59670
 Alpha  occ. eigenvalues --   -0.55933  -0.54606  -0.53658  -0.52883  -0.51974
 Alpha  occ. eigenvalues --   -0.48201  -0.46786  -0.44587  -0.40719  -0.36373
 Alpha  occ. eigenvalues --   -0.34500  -0.31245
 Alpha virt. eigenvalues --    0.06794   0.08073   0.13561   0.16526   0.18963
 Alpha virt. eigenvalues --    0.23511   0.24510   0.25452   0.27243   0.28791
 Alpha virt. eigenvalues --    0.29498   0.32830   0.37881   0.39363   0.40125

 Mulliken charges:
               1
     1  C    0.338586
     2  N   -0.667632
     3  C    0.322500
     4  C   -0.175174
     5  C   -0.215324
     6  H    0.200607
     7  C   -0.174582
     8  H    0.155243
     9  C   -0.162549
    10  C   -0.159806
    11  H    0.159984
    12  H    0.145681
    13  O   -0.443144
    14  H    0.343866
    15  H    0.167614
    16  H    0.164130
 Sum of Mulliken charges =  -0.00000

 Dipole moment (field-independent basis, Debye):
    X=             -1.0795    Y=             -3.1606    Z=             -0.8432  Tot=              3.4447
 Quadrupole moment (field-independent basis, Debye-Ang):
   XX=            -49.5894   YY=            -45.4549   ZZ=            -55.2261
   XY=             -8.6968   XZ=             -3.1051   YZ=             -1.0643

 Normal termination of Gaussian 16 at Fri Sep 22 11:11:31 2023.
