 Gaussian 16, Revision A.03,
 Gaussian 16:  ES64L-G16RevA.03 25-Dec-2016

 ----------------
 # 6-31g(d) wb97x
 ----------------

 -----------------------
 tmpdir/M3_conf_1_68.gjf
 -----------------------
 Symbolic Z-matrix:
 Charge =  0 Multiplicity = 1

                         Standard orientation:
 ---------------------------------------------------------------------
 Center     Atomic      Atomic             Coordinates (Angstroms)
 Number     Number       Type             X           Y           Z
 ---------------------------------------------------------------------
      1          6           0        0.229108   -0.021503   -0.022245
      2          6           0        1.726925   -0.137804   -0.051009
      3          7           0        2.402006    0.992705    0.326197
      4          6           0       -0.454873    1.185430   -0.186836
      5          6           0       -0.500811   -1.196855    0.150474
      6          6           0       -1.843695    1.215026   -0.165481
      7          1           0        0.090101    2.108632   -0.374178
      8          6           0       -1.888669   -1.161058    0.187032
      9          1           0        0.039978   -2.132230    0.263065
     10          6           0       -2.576080    0.042192    0.025954
     11          1           0       -2.381307    2.150985   -0.293150
     12          1           0       -2.447799   -2.081929    0.341945
     13          8           0        2.272530   -1.181535   -0.375807
     14          1           0        1.844725    1.717349    0.753297
     15          1           0        3.380847    1.125339    0.396686
     16          1           0       -3.672250    0.062628    0.008085
 ---------------------------------------------------------------------

 SCF Done:  E(RwB97X) =  -400.841577619     A.U. after   15 cycles

 The electronic state is 1-A.
 Alpha  occ. eigenvalues --  -19.17634 -14.43290 -10.37755 -10.28833 -10.28755
 Alpha  occ. eigenvalues --  -10.28558 -10.28346 -10.28056 -10.27871  -1.15588
 Alpha  occ. eigenvalues --   -1.03516  -0.99481  -0.89148  -0.88183  -0.76781
 Alpha  occ. eigenvalues --   -0.73337  -0.69965  -0.66159  -0.62705  -0.59255
 Alpha  occ. eigenvalues --   -0.56643  -0.54805  -0.53405  -0.52102  -0.51355
 Alpha  occ. eigenvalues --   -0.47727  -0.46203  -0.44611  -0.36957  -0.35780
 Alpha  occ. eigenvalues --   -0.35089  -0.34115
 Alpha virt. eigenvalues --    0.04930   0.07624   0.15960   0.17294   0.19947
 Alpha virt. eigenvalues --    0.22496   0.24936   0.25581   0.27378   0.28765
 Alpha virt. eigenvalues --    0.29248   0.35527   0.39009   0.39641   0.40256

 Mulliken charges:
               1
     1  C    0.014355
     2  C    0.555607
     3  N   -0.788863
     4  C   -0.199595
     5  C   -0.172473
     6  C   -0.165591
     7  H    0.159764
     8  C   -0.166903
     9  H    0.195752
    10  C   -0.151700
    11  H    0.164823
    12  H    0.167720
    13  O   -0.490592
    14  H    0.345676
    15  H    0.362553
    16  H    0.169469
 Sum of Mulliken charges =  -0.00000

 Dipole moment (field-independent basis, Debye):
    X=             -1.3763    Y=              3.1818    Z=              1.4217  Tot=              3.7468
 Quadrupole moment (field-independent basis, Debye-Ang):
   XX=            -46.2589   YY=            -47.2334   ZZ=            -54.4032
   XY=              8.8789   XZ=              3.5119   YZ=             -0.5081

 Normal termination of Gaussian 16 at Fri Sep 22 11:13:12 2023.
