 Gaussian 16, Revision A.03,
 Gaussian 16:  ES64L-G16RevA.03 25-Dec-2016

 ----------------
 # 6-31g(d) wb97x
 ----------------

 -----------------------
 tmpdir/M3_conf_2_75.gjf
 -----------------------
 Symbolic Z-matrix:
 Charge =  0 Multiplicity = 1

                         Standard orientation:
 ---------------------------------------------------------------------
 Center     Atomic      Atomic             Coordinates (Angstroms)
 Number     Number       Type             X           Y           Z
 ---------------------------------------------------------------------
      1          6           0        0.910514   -0.006539   -0.000162
      2          6           0        2.421961    0.006133    0.000582
      3          6           0        0.196471    1.185103   -0.003523
      4          6           0        0.183753   -1.216565    0.000616
      5          6           0       -1.191270    1.211273    0.000839
      6          1           0        0.745557    2.124385   -0.006101
      7          6           0       -1.213315   -1.208279   -0.000721
      8          6           0       -1.894236    0.008787    0.005851
      9          1           0       -1.721875    2.161091    0.008530
     10          1           0       -1.754983   -2.139711   -0.007119
     11          1           0        2.796105    1.033500   -0.006638
     12          1           0        2.839013   -0.497571   -0.881431
     13          1           0        2.838673   -0.483552    0.890990
     14          1           0        0.778353   -2.144505    0.001094
     15          1           0       -3.004109    0.066880   -0.020225
 ---------------------------------------------------------------------

 SCF Done:  E(RwB97X) =  -271.485394868     A.U. after   13 cycles

 The electronic state is 1-A.
 Alpha  occ. eigenvalues --  -10.27798 -10.27115 -10.27044 -10.27021 -10.26822
 Alpha  occ. eigenvalues --  -10.26498 -10.26453  -0.98285  -0.89586  -0.86729
 Alpha  occ. eigenvalues --   -0.80522  -0.72012  -0.69577  -0.61880  -0.56210
 Alpha  occ. eigenvalues --   -0.55976  -0.52671  -0.52109  -0.50534  -0.48376
 Alpha  occ. eigenvalues --   -0.46097  -0.43515  -0.43011  -0.33687  -0.32555
 Alpha virt. eigenvalues --    0.08564   0.09292   0.18681   0.21760   0.23504
 Alpha virt. eigenvalues --    0.25129   0.25647   0.27239   0.28641   0.30061
 Alpha virt. eigenvalues --    0.30716   0.33691   0.40944   0.41596   0.42251

 Mulliken charges:
               1
     1  C    0.133504
     2  C   -0.544375
     3  C   -0.203391
     4  C   -0.199016
     5  C   -0.150885
     6  H    0.146512
     7  C   -0.157677
     8  C   -0.168984
     9  H    0.160096
    10  H    0.161219
    11  H    0.167474
    12  H    0.174333
    13  H    0.174487
    14  H    0.151505
    15  H    0.155197
 Sum of Mulliken charges =  -0.00000

 Dipole moment (field-independent basis, Debye):
    X=              0.3299    Y=             -0.0037    Z=             -0.0143  Tot=              0.3302
 Quadrupole moment (field-independent basis, Debye-Ang):
   XX=            -37.4362   YY=            -37.9503   ZZ=            -45.0960
   XY=             -0.2385   XZ=              0.0560   YZ=              0.0187

 Normal termination of Gaussian 16 at Fri Sep 22 11:15:47 2023.
