 Gaussian 16, Revision A.03,
 Gaussian 16:  ES64L-G16RevA.03 25-Dec-2016

 ----------------
 # 6-31g(d) wb97x
 ----------------

 -----------------------
 tmpdir/M3_conf_1_17.gjf
 -----------------------
 Symbolic Z-matrix:
 Charge =  0 Multiplicity = 1

                         Standard orientation:
 ---------------------------------------------------------------------
 Center     Atomic      Atomic             Coordinates (Angstroms)
 Number     Number       Type             X           Y           Z
 ---------------------------------------------------------------------
      1          1           0       -1.101832   -0.897236   -0.477776
      2          6           0       -0.704910    0.000494    0.011167
      3          7           0        0.743318    0.001870   -0.113695
      4          1           0       -1.133361    0.897140   -0.464211
      5          1           0       -1.018307   -0.026604    1.074096
      6          1           0        1.150995   -0.834135    0.289656
      7          1           0        1.128738    0.844780    0.307094
 ---------------------------------------------------------------------

 SCF Done:  E(RwB97X) =  -95.8215563362     A.U. after   13 cycles

 The electronic state is 1-A.
 Alpha  occ. eigenvalues --  -14.37955 -10.28047  -0.99495  -0.77373  -0.60201
 Alpha  occ. eigenvalues --   -0.53572  -0.50540  -0.47028  -0.32176
 Alpha virt. eigenvalues --    0.18455   0.24245   0.25491   0.27560   0.29059
 Alpha virt. eigenvalues --    0.34243   0.66057   0.67774   0.69759   0.84856
 Alpha virt. eigenvalues --    0.87317   0.89550   0.97732   1.02598   1.04789

 Mulliken charges:
               1
     1  H    0.162385
     2  C   -0.328268
     3  N   -0.741632
     4  H    0.162482
     5  H    0.127409
     6  H    0.309949
     7  H    0.307675
 Sum of Mulliken charges =   0.00000

 Dipole moment (field-independent basis, Debye):
    X=             -0.1615    Y=             -0.0146    Z=              1.3594  Tot=              1.3690
 Quadrupole moment (field-independent basis, Debye-Ang):
   XX=            -13.6221   YY=            -12.1319   ZZ=            -15.2665
   XY=             -0.0714   XZ=              2.0577   YZ=              0.0216

 Normal termination of Gaussian 16 at Fri Sep 22 11:12:23 2023.
