 Gaussian 16, Revision A.03,
 Gaussian 16:  ES64L-G16RevA.03 25-Dec-2016

 ----------------
 # 6-31g(d) wb97x
 ----------------

 -----------------------
 tmpdir/M3_conf_2_10.gjf
 -----------------------
 Symbolic Z-matrix:
 Charge =  0 Multiplicity = 1

                         Standard orientation:
 ---------------------------------------------------------------------
 Center     Atomic      Atomic             Coordinates (Angstroms)
 Number     Number       Type             X           Y           Z
 ---------------------------------------------------------------------
      1          6           0        0.000307    0.002234   -0.001446
      2          1           0        0.137732   -0.417675    0.999585
      3          1           0        0.356301    1.044649   -0.014208
      4          1           0        0.613213   -0.595088   -0.705948
      5          1           0       -1.109087   -0.045289   -0.270751
 ---------------------------------------------------------------------

 SCF Done:  E(RwB97X) =  -40.4976952405     A.U. after   11 cycles

 The electronic state is 1-A.
 Alpha  occ. eigenvalues --  -10.25691  -0.81247  -0.49495  -0.49204  -0.48790
 Alpha virt. eigenvalues --    0.21095   0.26430   0.27069   0.27444   0.63955
 Alpha virt. eigenvalues --    0.64274   0.65607   0.98797   1.00691   1.01438
 Alpha virt. eigenvalues --    1.05108   1.20217   1.76012   1.76262   2.29831

 Mulliken charges:
               1
     1  C   -0.658923
     2  H    0.168302
     3  H    0.167538
     4  H    0.165323
     5  H    0.157759
 Sum of Mulliken charges =   0.00000

 Dipole moment (field-independent basis, Debye):
    X=              0.0375    Y=             -0.0059    Z=              0.0284  Tot=              0.0474
 Quadrupole moment (field-independent basis, Debye-Ang):
   XX=             -8.2104   YY=             -8.3051   ZZ=             -8.3838
   XY=              0.0021   XZ=             -0.0150   YZ=             -0.0117

 Normal termination of Gaussian 16 at Fri Sep 22 11:14:18 2023.
