 Gaussian 16, Revision A.03,
 Gaussian 16:  ES64L-G16RevA.03 25-Dec-2016

 ----------------
 # 6-31g(d) wb97x
 ----------------

 -----------------------
 tmpdir/M3_conf_2_14.gjf
 -----------------------
 Symbolic Z-matrix:
 Charge =  0 Multiplicity = 1

                         Standard orientation:
 ---------------------------------------------------------------------
 Center     Atomic      Atomic             Coordinates (Angstroms)
 Number     Number       Type             X           Y           Z
 ---------------------------------------------------------------------
      1          6           0       -0.760073    0.001309   -0.006281
      2          6           0        0.761684    0.001348    0.005073
      3          1           0        1.095279   -0.090269    1.058204
      4          1           0       -1.111926   -0.034428   -1.055265
      5          1           0       -1.129710   -0.895902    0.504306
      6          1           0       -1.160177    0.925614    0.537694
      7          1           0        1.131179   -0.870046   -0.548709
      8          1           0        1.165687    0.949088   -0.488985
 ---------------------------------------------------------------------

 SCF Done:  E(RwB97X) =  -79.7969424312     A.U. after   12 cycles

 The electronic state is 1-A.
 Alpha  occ. eigenvalues --  -10.26083 -10.26062  -0.87899  -0.72381  -0.54515
 Alpha  occ. eigenvalues --   -0.54052  -0.45932  -0.43988  -0.43704
 Alpha virt. eigenvalues --    0.19190   0.25214   0.25269   0.25927   0.28128
 Alpha virt. eigenvalues --    0.28315   0.33540   0.61307   0.66156   0.66333
 Alpha virt. eigenvalues --    0.73673   0.74699   0.78853   0.97468   0.98852

 Mulliken charges:
               1
     1  C   -0.458017
     2  C   -0.457350
     3  H    0.154239
     4  H    0.154406
     5  H    0.156693
     6  H    0.146077
     7  H    0.156797
     8  H    0.147154
 Sum of Mulliken charges =  -0.00000

 Dipole moment (field-independent basis, Debye):
    X=             -0.0014    Y=             -0.0850    Z=             -0.0028  Tot=              0.0851
 Quadrupole moment (field-independent basis, Debye-Ang):
   XX=            -15.7692   YY=            -14.6797   ZZ=            -14.6363
   XY=              0.0100   XZ=             -0.0775   YZ=             -0.0046

 Normal termination of Gaussian 16 at Fri Sep 22 11:14:18 2023.
