 Gaussian 16, Revision A.03,
 Gaussian 16:  ES64L-G16RevA.03 25-Dec-2016

 ----------------
 # 6-31g(d) wb97x
 ----------------

 -----------------------
 tmpdir/M3_conf_1_60.gjf
 -----------------------
 Symbolic Z-matrix:
 Charge =  0 Multiplicity = 1

                         Standard orientation:
 ---------------------------------------------------------------------
 Center     Atomic      Atomic             Coordinates (Angstroms)
 Number     Number       Type             X           Y           Z
 ---------------------------------------------------------------------
      1          7           0        2.766502    0.445346   -0.323730
      2          6           0        1.898283   -0.538101    0.297463
      3          6           0        0.422188   -0.245203    0.125226
      4          6           0       -0.046831    1.068853    0.160858
      5          6           0       -0.497996   -1.283864   -0.018764
      6          1           0        0.671591    1.876378    0.275459
      7          6           0       -1.405064    1.337870    0.046873
      8          1           0       -0.144790   -2.312788   -0.053099
      9          6           0       -1.857896   -1.019766   -0.117185
     10          1           0       -1.746728    2.368920    0.114632
     11          6           0       -2.322497    0.294743   -0.099806
     12          1           0       -2.580525   -1.824682   -0.217016
     13          1           0        3.730204    0.356316   -0.002585
     14          1           0        2.733467    0.392161   -1.342607
     15          1           0        2.106523   -1.562624   -0.069493
     16          1           0        2.120269   -0.543969    1.373283
     17          1           0       -3.396653    0.445674   -0.180461
 ---------------------------------------------------------------------

 SCF Done:  E(RwB97X) =  -326.814765705     A.U. after   13 cycles

 The electronic state is 1-A.
 Alpha  occ. eigenvalues --  -14.38946 -10.29414 -10.27048 -10.26576 -10.26547
 Alpha  occ. eigenvalues --  -10.26493 -10.26432 -10.25877  -1.01297  -0.97332
 Alpha  occ. eigenvalues --   -0.87710  -0.86370  -0.78046  -0.71584  -0.69045
 Alpha  occ. eigenvalues --   -0.62413  -0.59848  -0.57232  -0.55371  -0.52325
 Alpha  occ. eigenvalues --   -0.51714  -0.50760  -0.49301  -0.45946  -0.42954
 Alpha  occ. eigenvalues --   -0.42887  -0.33890  -0.33294  -0.31906
 Alpha virt. eigenvalues --    0.08970   0.09325   0.18436   0.20020   0.23140
 Alpha virt. eigenvalues --    0.23841   0.25915   0.27015   0.27298   0.29710
 Alpha virt. eigenvalues --    0.30109   0.30624   0.35214   0.35640   0.41234

 Mulliken charges:
               1
     1  N   -0.746544
     2  C   -0.207394
     3  C    0.099658
     4  C   -0.183190
     5  C   -0.203424
     6  H    0.176533
     7  C   -0.162206
     8  H    0.146597
     9  C   -0.158630
    10  H    0.156815
    11  C   -0.162416
    12  H    0.155459
    13  H    0.314733
    14  H    0.313565
    15  H    0.132575
    16  H    0.171190
    17  H    0.156678
 Sum of Mulliken charges =  -0.00000

 Dipole moment (field-independent basis, Debye):
    X=              1.0342    Y=             -0.9413    Z=             -0.3291  Tot=              1.4366
 Quadrupole moment (field-independent basis, Debye-Ang):
   XX=            -38.7097   YY=            -45.9620   ZZ=            -48.8518
   XY=             -2.1922   XZ=             -0.5335   YZ=              0.2434

 Normal termination of Gaussian 16 at Fri Sep 22 11:13:05 2023.
