 Gaussian 16, Revision A.03,
 Gaussian 16:  ES64L-G16RevA.03 25-Dec-2016

 ----------------
 # 6-31g(d) wb97x
 ----------------

 ----------------------
 tmpdir/M3_conf_0_6.gjf
 ----------------------
 Symbolic Z-matrix:
 Charge =  0 Multiplicity = 1

                         Standard orientation:
 ---------------------------------------------------------------------
 Center     Atomic      Atomic             Coordinates (Angstroms)
 Number     Number       Type             X           Y           Z
 ---------------------------------------------------------------------
      1          1           0       -1.026926   -0.014360    1.071362
      2          6           0       -0.706774   -0.000059    0.011764
      3          7           0        0.744249    0.001491   -0.112103
      4          1           0       -1.098410   -0.903094   -0.471416
      5          1           0       -1.129615    0.891550   -0.477893
      6          1           0        1.127689    0.851480    0.303278
      7          1           0        1.158160   -0.835662    0.288805
 ---------------------------------------------------------------------

 SCF Done:  E(RwB97X) =  -95.8214935111     A.U. after   13 cycles

 The electronic state is 1-A.
 Alpha  occ. eigenvalues --  -14.38000 -10.28045  -0.99335  -0.77354  -0.60141
 Alpha  occ. eigenvalues --   -0.53539  -0.50464  -0.47028  -0.32149
 Alpha virt. eigenvalues --    0.18421   0.24215   0.25470   0.27608   0.29026
 Alpha virt. eigenvalues --    0.34129   0.66048   0.67726   0.69755   0.84788
 Alpha virt. eigenvalues --    0.87436   0.89557   0.97747   1.02433   1.04636

 Mulliken charges:
               1
     1  H    0.128399
     2  C   -0.327389
     3  N   -0.743171
     4  H    0.162261
     5  H    0.162419
     6  H    0.307416
     7  H    0.310065
 Sum of Mulliken charges =  -0.00000

 Dipole moment (field-independent basis, Debye):
    X=             -0.1589    Y=             -0.0117    Z=              1.3472  Tot=              1.3566
 Quadrupole moment (field-independent basis, Debye-Ang):
   XX=            -13.6110   YY=            -12.1159   ZZ=            -15.2714
   XY=             -0.0724   XZ=              2.0318   YZ=              0.0179

 Normal termination of Gaussian 16 at Fri Sep 22 11:10:33 2023.
