 Gaussian 16, Revision A.03,
 Gaussian 16:  ES64L-G16RevA.03 25-Dec-2016

 ----------------
 # 6-31g(d) wb97x
 ----------------

 -----------------------
 tmpdir/M3_conf_2_19.gjf
 -----------------------
 Symbolic Z-matrix:
 Charge =  0 Multiplicity = 1

                         Standard orientation:
 ---------------------------------------------------------------------
 Center     Atomic      Atomic             Coordinates (Angstroms)
 Number     Number       Type             X           Y           Z
 ---------------------------------------------------------------------
      1          7           0       -0.737862   -0.000020   -0.114017
      2          6           0        0.699368    0.000026    0.013768
      3          1           0       -1.148353   -0.834068    0.300437
      4          1           0       -1.148799    0.833823    0.300671
      5          1           0        1.036381   -0.000224    1.068533
      6          1           0        1.114574    0.887016   -0.476886
      7          1           0        1.115024   -0.886560   -0.477243
 ---------------------------------------------------------------------

 SCF Done:  E(RwB97X) =  -95.8221863849     A.U. after   14 cycles

 The electronic state is 1-A.
 Alpha  occ. eigenvalues --  -14.38015 -10.27873  -0.99704  -0.77483  -0.60053
 Alpha  occ. eigenvalues --   -0.53953  -0.50737  -0.46755  -0.32247
 Alpha virt. eigenvalues --    0.18548   0.24264   0.25392   0.27745   0.29091
 Alpha virt. eigenvalues --    0.34747   0.66242   0.67422   0.69929   0.85069
 Alpha virt. eigenvalues --    0.87108   0.90169   0.97776   1.03236   1.04457

 Mulliken charges:
               1
     1  N   -0.739724
     2  C   -0.327289
     3  H    0.308036
     4  H    0.308036
     5  H    0.126349
     6  H    0.162293
     7  H    0.162299
 Sum of Mulliken charges =   0.00000

 Dipole moment (field-independent basis, Debye):
    X=              0.1229    Y=             -0.0002    Z=              1.3513  Tot=              1.3569
 Quadrupole moment (field-independent basis, Debye-Ang):
   XX=            -13.5114   YY=            -12.2124   ZZ=            -15.2449
   XY=             -0.0006   XZ=             -2.0633   YZ=              0.0001

 Normal termination of Gaussian 16 at Fri Sep 22 11:14:19 2023.
