 Gaussian 16, Revision A.03,
 Gaussian 16:  ES64L-G16RevA.03 25-Dec-2016

 ----------------
 # 6-31g(d) wb97x
 ----------------

 -----------------------
 tmpdir/M3_conf_1_58.gjf
 -----------------------
 Symbolic Z-matrix:
 Charge =  0 Multiplicity = 1

                         Standard orientation:
 ---------------------------------------------------------------------
 Center     Atomic      Atomic             Coordinates (Angstroms)
 Number     Number       Type             X           Y           Z
 ---------------------------------------------------------------------
      1          7           0        0.739917   -0.006642   -0.117038
      2          6           0       -0.705818   -0.006609    0.012197
      3          1           0       -1.000590   -0.132554    1.072813
      4          1           0        1.155107    0.838496    0.274293
      5          1           0        1.160107   -0.831584    0.313015
      6          1           0       -1.067167    0.980769   -0.305944
      7          1           0       -1.191964   -0.768980   -0.608094
 ---------------------------------------------------------------------

 SCF Done:  E(RwB97X) =  -95.8208434058     A.U. after   12 cycles

 The electronic state is 1-A.
 Alpha  occ. eigenvalues --  -14.37994 -10.28034  -0.99378  -0.77449  -0.59803
 Alpha  occ. eigenvalues --   -0.53624  -0.51055  -0.46677  -0.32092
 Alpha virt. eigenvalues --    0.18396   0.24079   0.24925   0.28006   0.29395
 Alpha virt. eigenvalues --    0.34383   0.66184   0.67123   0.70101   0.84972
 Alpha virt. eigenvalues --    0.87540   0.90143   0.97819   1.02996   1.04113

 Mulliken charges:
               1
     1  N   -0.744001
     2  C   -0.324840
     3  H    0.128412
     4  H    0.308722
     5  H    0.306976
     6  H    0.159418
     7  H    0.165313
 Sum of Mulliken charges =  -0.00000

 Dipole moment (field-independent basis, Debye):
    X=             -0.1363    Y=              0.0798    Z=              1.3635  Tot=              1.3726
 Quadrupole moment (field-independent basis, Debye-Ang):
   XX=            -13.4688   YY=            -12.2328   ZZ=            -15.2488
   XY=              0.0484   XZ=              2.0952   YZ=              0.0029

 Normal termination of Gaussian 16 at Fri Sep 22 11:12:59 2023.
