 Gaussian 16, Revision A.03,
 Gaussian 16:  ES64L-G16RevA.03 25-Dec-2016

 ----------------
 # 6-31g(d) wb97x
 ----------------

 -----------------------
 tmpdir/M3_conf_1_50.gjf
 -----------------------
 Symbolic Z-matrix:
 Charge =  0 Multiplicity = 1

                         Standard orientation:
 ---------------------------------------------------------------------
 Center     Atomic      Atomic             Coordinates (Angstroms)
 Number     Number       Type             X           Y           Z
 ---------------------------------------------------------------------
      1          1           0        1.025870   -0.016269    1.071967
      2          6           0        0.707835   -0.000075    0.011550
      3          7           0       -0.744707    0.001827   -0.112125
      4          1           0        1.128796    0.892267   -0.477271
      5          1           0        1.098636   -0.902494   -0.471190
      6          1           0       -1.127632    0.849810    0.305109
      7          1           0       -1.159731   -0.835650    0.286961
 ---------------------------------------------------------------------

 SCF Done:  E(RwB97X) =  -95.8214859027     A.U. after   13 cycles

 The electronic state is 1-A.
 Alpha  occ. eigenvalues --  -14.37984 -10.28046  -0.99306  -0.77376  -0.60129
 Alpha  occ. eigenvalues --   -0.53512  -0.50458  -0.47071  -0.32144
 Alpha virt. eigenvalues --    0.18429   0.24220   0.25508   0.27600   0.29041
 Alpha virt. eigenvalues --    0.34070   0.66032   0.67692   0.69739   0.84808
 Alpha virt. eigenvalues --    0.87439   0.89551   0.97750   1.02482   1.04687

 Mulliken charges:
               1
     1  H    0.128509
     2  C   -0.327466
     3  N   -0.743780
     4  H    0.162707
     5  H    0.162606
     6  H    0.307497
     7  H    0.309927
 Sum of Mulliken charges =   0.00000

 Dipole moment (field-independent basis, Debye):
    X=              0.1624    Y=             -0.0157    Z=              1.3479  Tot=              1.3577
 Quadrupole moment (field-independent basis, Debye-Ang):
   XX=            -13.6076   YY=            -12.1155   ZZ=            -15.2684
   XY=              0.0767   XZ=             -2.0345   YZ=              0.0222

 Normal termination of Gaussian 16 at Fri Sep 22 11:12:45 2023.
