 Gaussian 16, Revision A.03,
 Gaussian 16:  ES64L-G16RevA.03 25-Dec-2016

 ----------------
 # 6-31g(d) wb97x
 ----------------

 -----------------------
 tmpdir/M3_conf_0_60.gjf
 -----------------------
 Symbolic Z-matrix:
 Charge =  0 Multiplicity = 1

                         Standard orientation:
 ---------------------------------------------------------------------
 Center     Atomic      Atomic             Coordinates (Angstroms)
 Number     Number       Type             X           Y           Z
 ---------------------------------------------------------------------
      1          7           0        2.802333    0.434089   -0.315281
      2          6           0        1.895198   -0.522381    0.292275
      3          6           0        0.417343   -0.237381    0.121875
      4          6           0       -0.058161    1.074422    0.154375
      5          6           0       -0.497903   -1.281052   -0.017255
      6          1           0        0.656417    1.885862    0.265195
      7          6           0       -1.417931    1.336312    0.042079
      8          1           0       -0.139627   -2.308307   -0.049108
      9          6           0       -1.859287   -1.024046   -0.113966
     10          1           0       -1.764623    2.365844    0.107333
     11          6           0       -2.330414    0.288170   -0.099725
     12          1           0       -2.578062   -1.832864   -0.210010
     13          1           0        3.756910    0.319161    0.024361
     14          1           0        2.787061    0.378251   -1.334437
     15          1           0        2.081407   -1.553640   -0.067585
     16          1           0        2.096574   -0.530679    1.372127
     17          1           0       -3.405451    0.433488   -0.178853
 ---------------------------------------------------------------------

 SCF Done:  E(RwB97X) =  -326.814114371     A.U. after   13 cycles

 The electronic state is 1-A.
 Alpha  occ. eigenvalues --  -14.39024 -10.29413 -10.27108 -10.26607 -10.26583
 Alpha  occ. eigenvalues --  -10.26518 -10.26470 -10.25919  -1.01254  -0.97391
 Alpha  occ. eigenvalues --   -0.87806  -0.86409  -0.78086  -0.71621  -0.69043
 Alpha  occ. eigenvalues --   -0.62388  -0.59882  -0.57221  -0.55441  -0.52435
 Alpha  occ. eigenvalues --   -0.51744  -0.50699  -0.49387  -0.45942  -0.43001
 Alpha  occ. eigenvalues --   -0.42902  -0.33851  -0.33333  -0.31941
 Alpha virt. eigenvalues --    0.08961   0.09293   0.18345   0.20014   0.23116
 Alpha virt. eigenvalues --    0.23840   0.25897   0.26982   0.27282   0.29664
 Alpha virt. eigenvalues --    0.30040   0.30684   0.35261   0.35618   0.41205

 Mulliken charges:
               1
     1  N   -0.745956
     2  C   -0.206522
     3  C    0.099948
     4  C   -0.185213
     5  C   -0.203109
     6  H    0.175607
     7  C   -0.161954
     8  H    0.146855
     9  C   -0.158493
    10  H    0.156950
    11  C   -0.162563
    12  H    0.155775
    13  H    0.316000
    14  H    0.313668
    15  H    0.131011
    16  H    0.171165
    17  H    0.156831
 Sum of Mulliken charges =  -0.00000

 Dipole moment (field-independent basis, Debye):
    X=              1.0025    Y=             -0.9633    Z=             -0.3142  Tot=              1.4254
 Quadrupole moment (field-independent basis, Debye-Ang):
   XX=            -38.7152   YY=            -46.0025   ZZ=            -48.8620
   XY=             -2.3108   XZ=             -0.5470   YZ=              0.2479

 Normal termination of Gaussian 16 at Fri Sep 22 11:11:13 2023.
