 Gaussian 16, Revision A.03,
 Gaussian 16:  ES64L-G16RevA.03 25-Dec-2016

 ----------------
 # 6-31g(d) wb97x
 ----------------

 -----------------------
 tmpdir/M3_conf_0_61.gjf
 -----------------------
 Symbolic Z-matrix:
 Charge =  0 Multiplicity = 1

                         Standard orientation:
 ---------------------------------------------------------------------
 Center     Atomic      Atomic             Coordinates (Angstroms)
 Number     Number       Type             X           Y           Z
 ---------------------------------------------------------------------
      1          1           0       -0.505414   -0.728224   -0.660240
      2          6           0        0.002290    0.008701   -0.006908
      3          1           0       -0.122482   -0.372749    1.015654
      4          1           0        1.120110    0.071830   -0.226345
      5          1           0       -0.505956    0.976937   -0.087619
 ---------------------------------------------------------------------

 SCF Done:  E(RwB97X) =  -40.4972176810     A.U. after   11 cycles

 The electronic state is 1-A.
 Alpha  occ. eigenvalues --  -10.25659  -0.81290  -0.49739  -0.49243  -0.48515
 Alpha virt. eigenvalues --    0.21085   0.26514   0.26991   0.27473   0.63855
 Alpha virt. eigenvalues --    0.64229   0.65743   0.98804   1.00462   1.01588
 Alpha virt. eigenvalues --    1.05504   1.20370   1.76022   1.76262   2.29417

 Mulliken charges:
               1
     1  H    0.164914
     2  C   -0.660063
     3  H    0.165655
     4  H    0.159600
     5  H    0.169893
 Sum of Mulliken charges =  -0.00000

 Dipole moment (field-independent basis, Debye):
    X=             -0.0462    Y=             -0.0278    Z=              0.0432  Tot=              0.0691
 Quadrupole moment (field-independent basis, Debye-Ang):
   XX=             -8.1459   YY=             -8.2814   ZZ=             -8.4689
   XY=             -0.0222   XZ=              0.0120   YZ=             -0.0062

 Normal termination of Gaussian 16 at Fri Sep 22 11:11:15 2023.
