 Gaussian 16, Revision A.03,
 Gaussian 16:  ES64L-G16RevA.03 25-Dec-2016

 ----------------
 # 6-31g(d) wb97x
 ----------------

 -----------------------
 tmpdir/M3_conf_1_26.gjf
 -----------------------
 Symbolic Z-matrix:
 Charge =  0 Multiplicity = 1

                         Standard orientation:
 ---------------------------------------------------------------------
 Center     Atomic      Atomic             Coordinates (Angstroms)
 Number     Number       Type             X           Y           Z
 ---------------------------------------------------------------------
      1          6           0       -0.002178    0.003676   -0.000503
      2          1           0        0.208170   -0.434565    0.979119
      3          1           0       -1.096550    0.310392   -0.058010
      4          1           0        0.690372    0.853993   -0.153675
      5          1           0        0.211073   -0.751878   -0.764413
 ---------------------------------------------------------------------

 SCF Done:  E(RwB97X) =  -40.4978241056     A.U. after   11 cycles

 The electronic state is 1-A.
 Alpha  occ. eigenvalues --  -10.25553  -0.81347  -0.49439  -0.49307  -0.48894
 Alpha virt. eigenvalues --    0.21168   0.26612   0.27151   0.27475   0.63863
 Alpha virt. eigenvalues --    0.64083   0.65636   0.99089   1.00864   1.01526
 Alpha virt. eigenvalues --    1.05713   1.20349   1.75959   1.76201   2.29876

 Mulliken charges:
               1
     1  C   -0.660657
     2  H    0.167989
     3  H    0.159470
     4  H    0.165693
     5  H    0.167504
 Sum of Mulliken charges =   0.00000

 Dipole moment (field-independent basis, Debye):
    X=              0.0423    Y=             -0.0368    Z=              0.0077  Tot=              0.0566
 Quadrupole moment (field-independent basis, Debye-Ang):
   XX=             -8.1557   YY=             -8.3623   ZZ=             -8.3565
   XY=              0.0127   XZ=             -0.0017   YZ=              0.0016

 Normal termination of Gaussian 16 at Fri Sep 22 11:12:34 2023.
