 Gaussian 16, Revision A.03,
 Gaussian 16:  ES64L-G16RevA.03 25-Dec-2016

 ----------------
 # 6-31g(d) wb97x
 ----------------

 -----------------------
 tmpdir/M3_conf_1_79.gjf
 -----------------------
 Symbolic Z-matrix:
 Charge =  0 Multiplicity = 1

                         Standard orientation:
 ---------------------------------------------------------------------
 Center     Atomic      Atomic             Coordinates (Angstroms)
 Number     Number       Type             X           Y           Z
 ---------------------------------------------------------------------
      1          6           0        0.910965   -0.006464   -0.000165
      2          6           0        2.418912    0.006188    0.000575
      3          1           0        2.801997    1.030261   -0.006615
      4          6           0        0.196914    1.185176   -0.003532
      5          6           0        0.184212   -1.216488    0.000620
      6          6           0       -1.190827    1.211331    0.000834
      7          1           0        0.745994    2.124450   -0.006107
      8          6           0       -1.212856   -1.208223   -0.000721
      9          6           0       -1.893785    0.008839    0.005858
     10          1           0       -1.721438    2.161145    0.008527
     11          1           0       -1.754518   -2.139649   -0.007118
     12          1           0        2.835966   -0.497514   -0.881438
     13          1           0        2.835627   -0.483338    0.891066
     14          1           0        0.778818   -2.144435    0.001094
     15          1           0       -3.003659    0.066926   -0.020225
 ---------------------------------------------------------------------

 SCF Done:  E(RwB97X) =  -271.485399112     A.U. after   13 cycles

 The electronic state is 1-A.
 Alpha  occ. eigenvalues --  -10.27780 -10.27115 -10.27043 -10.27018 -10.26818
 Alpha  occ. eigenvalues --  -10.26470 -10.26445  -0.98293  -0.89622  -0.86728
 Alpha  occ. eigenvalues --   -0.80528  -0.72015  -0.69579  -0.61886  -0.56212
 Alpha  occ. eigenvalues --   -0.55991  -0.52700  -0.52105  -0.50564  -0.48342
 Alpha  occ. eigenvalues --   -0.46088  -0.43526  -0.43015  -0.33686  -0.32544
 Alpha virt. eigenvalues --    0.08561   0.09293   0.18701   0.21764   0.23500
 Alpha virt. eigenvalues --    0.25122   0.25662   0.27223   0.28650   0.30028
 Alpha virt. eigenvalues --    0.30736   0.33779   0.40942   0.41617   0.42256

 Mulliken charges:
               1
     1  C    0.134859
     2  C   -0.545771
     3  H    0.167753
     4  C   -0.203471
     5  C   -0.199092
     6  C   -0.150890
     7  H    0.146579
     8  C   -0.157688
     9  C   -0.169006
    10  H    0.160063
    11  H    0.161226
    12  H    0.174294
    13  H    0.174448
    14  H    0.151523
    15  H    0.155174
 Sum of Mulliken charges =  -0.00000

 Dipole moment (field-independent basis, Debye):
    X=              0.3334    Y=             -0.0026    Z=             -0.0142  Tot=              0.3337
 Quadrupole moment (field-independent basis, Debye-Ang):
   XX=            -37.4210   YY=            -37.9578   ZZ=            -45.0925
   XY=             -0.2251   XZ=              0.0561   YZ=              0.0189

 Normal termination of Gaussian 16 at Fri Sep 22 11:13:20 2023.
