 Gaussian 16, Revision A.03,
 Gaussian 16:  ES64L-G16RevA.03 25-Dec-2016

 ----------------
 # 6-31g(d) wb97x
 ----------------

 -----------------------
 tmpdir/M3_conf_0_57.gjf
 -----------------------
 Symbolic Z-matrix:
 Charge =  0 Multiplicity = 1

                         Standard orientation:
 ---------------------------------------------------------------------
 Center     Atomic      Atomic             Coordinates (Angstroms)
 Number     Number       Type             X           Y           Z
 ---------------------------------------------------------------------
      1          6           0        2.422484   -0.010534    0.012098
      2          6           0        0.904537   -0.004068   -0.024444
      3          6           0        0.202047    1.201888   -0.011764
      4          6           0        0.186819   -1.200374   -0.018242
      5          1           0        0.763232    2.132697   -0.014422
      6          6           0       -1.187188    1.210517   -0.001073
      7          1           0        0.722578   -2.147661   -0.033284
      8          6           0       -1.201716   -1.195761    0.008345
      9          1           0       -1.709038    2.164391    0.045725
     10          6           0       -1.901622    0.010130    0.002625
     11          1           0       -1.766166   -2.123733    0.025804
     12          1           0        2.887015    0.841592   -0.587686
     13          1           0        2.793705   -0.999835   -0.321272
     14          1           0        2.744327    0.104759    1.056049
     15          1           0       -2.987823   -0.043000    0.023816
 ---------------------------------------------------------------------

 SCF Done:  E(RwB97X) =  -271.484306256     A.U. after   13 cycles

 The electronic state is 1-A.
 Alpha  occ. eigenvalues --  -10.27797 -10.27131 -10.27022 -10.26825 -10.26734
 Alpha  occ. eigenvalues --  -10.26591 -10.26565  -0.98378  -0.89490  -0.86794
 Alpha  occ. eigenvalues --   -0.80334  -0.71980  -0.69584  -0.62015  -0.56288
 Alpha  occ. eigenvalues --   -0.55895  -0.52339  -0.52068  -0.50574  -0.48488
 Alpha  occ. eigenvalues --   -0.45990  -0.43500  -0.43043  -0.33701  -0.32521
 Alpha virt. eigenvalues --    0.08899   0.09055   0.18742   0.21368   0.23251
 Alpha virt. eigenvalues --    0.24691   0.26166   0.27277   0.28688   0.29494
 Alpha virt. eigenvalues --    0.30823   0.33507   0.40705   0.41939   0.43222

 Mulliken charges:
               1
     1  C   -0.536454
     2  C    0.129562
     3  C   -0.193937
     4  C   -0.198548
     5  H    0.150853
     6  C   -0.160312
     7  H    0.148893
     8  C   -0.156544
     9  H    0.157652
    10  C   -0.165002
    11  H    0.157546
    12  H    0.163014
    13  H    0.165593
    14  H    0.179523
    15  H    0.158159
 Sum of Mulliken charges =  -0.00000

 Dipole moment (field-independent basis, Debye):
    X=              0.2804    Y=             -0.0114    Z=              0.1333  Tot=              0.3107
 Quadrupole moment (field-independent basis, Debye-Ang):
   XX=            -37.7025   YY=            -37.8585   ZZ=            -45.1358
   XY=              0.2560   XZ=              0.0322   YZ=              0.0048

 Normal termination of Gaussian 16 at Fri Sep 22 11:11:05 2023.
