 Gaussian 16, Revision A.03,
 Gaussian 16:  ES64L-G16RevA.03 25-Dec-2016

 ----------------
 # 6-31g(d) wb97x
 ----------------

 -----------------------
 tmpdir/M3_conf_2_26.gjf
 -----------------------
 Symbolic Z-matrix:
 Charge =  0 Multiplicity = 1

                         Standard orientation:
 ---------------------------------------------------------------------
 Center     Atomic      Atomic             Coordinates (Angstroms)
 Number     Number       Type             X           Y           Z
 ---------------------------------------------------------------------
      1          6           0        0.002233    0.003821   -0.000242
      2          1           0       -0.213884   -0.661261   -0.844017
      3          1           0        1.097496    0.311855   -0.023635
      4          1           0       -0.687831    0.867957   -0.056862
      5          1           0       -0.209178   -0.541474    0.925963
 ---------------------------------------------------------------------

 SCF Done:  E(RwB97X) =  -40.4978197032     A.U. after   11 cycles

 The electronic state is 1-A.
 Alpha  occ. eigenvalues --  -10.25578  -0.81329  -0.49442  -0.49284  -0.48885
 Alpha virt. eigenvalues --    0.21156   0.26602   0.27141   0.27437   0.63904
 Alpha virt. eigenvalues --    0.64095   0.65634   0.99082   1.00848   1.01442
 Alpha virt. eigenvalues --    1.05603   1.20332   1.75969   1.76213   2.29866

 Mulliken charges:
               1
     1  C   -0.660404
     2  H    0.167469
     3  H    0.159556
     4  H    0.165784
     5  H    0.167595
 Sum of Mulliken charges =   0.00000

 Dipole moment (field-independent basis, Debye):
    X=             -0.0421    Y=             -0.0365    Z=              0.0029  Tot=              0.0558
 Quadrupole moment (field-independent basis, Debye-Ang):
   XX=             -8.1576   YY=             -8.3642   ZZ=             -8.3573
   XY=             -0.0133   XZ=              0.0009   YZ=              0.0007

 Normal termination of Gaussian 16 at Fri Sep 22 11:14:24 2023.
