 Gaussian 16, Revision A.03,
 Gaussian 16:  ES64L-G16RevA.03 25-Dec-2016

 ----------------
 # 6-31g(d) wb97x
 ----------------

 -----------------------
 tmpdir/M3_conf_0_23.gjf
 -----------------------
 Symbolic Z-matrix:
 Charge =  0 Multiplicity = 1

                         Standard orientation:
 ---------------------------------------------------------------------
 Center     Atomic      Atomic             Coordinates (Angstroms)
 Number     Number       Type             X           Y           Z
 ---------------------------------------------------------------------
      1          6           0       -1.257071   -0.199642    0.022007
      2          7           0       -0.001624    0.500210   -0.152559
      3          6           0        1.256493   -0.207841    0.018708
      4          1           0       -1.386131   -0.600424    1.046137
      5          1           0       -1.315087   -1.036936   -0.681890
      6          1           0       -2.091513    0.478724   -0.186391
      7          1           0        0.063155    1.307725    0.463595
      8          1           0        1.282907   -1.053053   -0.679304
      9          1           0        1.354879   -0.614565    1.045413
     10          1           0        2.106627    0.461960   -0.183938
 ---------------------------------------------------------------------

 SCF Done:  E(RwB97X) =  -135.118401203     A.U. after   13 cycles

 The electronic state is 1-A.
 Alpha  occ. eigenvalues --  -14.38481 -10.28115 -10.28105  -1.01855  -0.82671
 Alpha  occ. eigenvalues --   -0.73881  -0.59382  -0.54584  -0.53743  -0.49085
 Alpha  occ. eigenvalues --   -0.47158  -0.45590  -0.30507
 Alpha virt. eigenvalues --    0.18165   0.23807   0.24921   0.25011   0.27036
 Alpha virt. eigenvalues --    0.28462   0.28954   0.31199   0.37190   0.60711
 Alpha virt. eigenvalues --    0.65337   0.68129   0.69961   0.70775   0.85104

 Mulliken charges:
               1
     1  C   -0.319102
     2  N   -0.555554
     3  C   -0.323062
     4  H    0.124138
     5  H    0.160439
     6  H    0.166026
     7  H    0.300814
     8  H    0.158172
     9  H    0.123788
    10  H    0.164343
 Sum of Mulliken charges =   0.00000

 Dipole moment (field-independent basis, Debye):
    X=              0.0216    Y=             -0.0884    Z=              0.9739  Tot=              0.9782
 Quadrupole moment (field-independent basis, Debye-Ang):
   XX=            -19.2896   YY=            -19.9429   ZZ=            -21.6818
   XY=              0.1864   XZ=              0.0635   YZ=              1.9104

 Normal termination of Gaussian 16 at Fri Sep 22 11:10:44 2023.
