 Gaussian 16, Revision A.03,
 Gaussian 16:  ES64L-G16RevA.03 25-Dec-2016

 ----------------
 # 6-31g(d) wb97x
 ----------------

 -----------------------
 tmpdir/M3_conf_1_61.gjf
 -----------------------
 Symbolic Z-matrix:
 Charge =  0 Multiplicity = 1

                         Standard orientation:
 ---------------------------------------------------------------------
 Center     Atomic      Atomic             Coordinates (Angstroms)
 Number     Number       Type             X           Y           Z
 ---------------------------------------------------------------------
      1          1           0       -0.506271   -0.805941   -0.564543
      2          6           0        0.001237    0.006821   -0.008199
      3          1           0       -0.081787   -0.253589    1.055757
      4          1           0        1.111336    0.068060   -0.264297
      5          1           0       -0.530698    0.950545   -0.177725
 ---------------------------------------------------------------------

 SCF Done:  E(RwB97X) =  -40.4972945956     A.U. after   11 cycles

 The electronic state is 1-A.
 Alpha  occ. eigenvalues --  -10.25659  -0.81287  -0.49719  -0.49220  -0.48561
 Alpha virt. eigenvalues --    0.21089   0.26491   0.27039   0.27452   0.63870
 Alpha virt. eigenvalues --    0.64218   0.65734   0.98786   1.00572   1.01536
 Alpha virt. eigenvalues --    1.05459   1.20359   1.76042   1.76229   2.29457

 Mulliken charges:
               1
     1  H    0.165205
     2  C   -0.659982
     3  H    0.165644
     4  H    0.159401
     5  H    0.169733
 Sum of Mulliken charges =  -0.00000

 Dipole moment (field-independent basis, Debye):
    X=             -0.0421    Y=             -0.0196    Z=              0.0486  Tot=              0.0672
 Quadrupole moment (field-independent basis, Debye-Ang):
   XX=             -8.1476   YY=             -8.2941   ZZ=             -8.4542
   XY=             -0.0214   XZ=              0.0173   YZ=             -0.0073

 Normal termination of Gaussian 16 at Fri Sep 22 11:13:07 2023.
