 Gaussian 16, Revision A.03,
 Gaussian 16:  ES64L-G16RevA.03 25-Dec-2016

 ----------------
 # 6-31g(d) wb97x
 ----------------

 -----------------------
 tmpdir/M3_conf_2_71.gjf
 -----------------------
 Symbolic Z-matrix:
 Charge =  0 Multiplicity = 1

                         Standard orientation:
 ---------------------------------------------------------------------
 Center     Atomic      Atomic             Coordinates (Angstroms)
 Number     Number       Type             X           Y           Z
 ---------------------------------------------------------------------
      1          7           0       -2.334294   -0.032834   -0.021051
      2          6           0       -0.917300   -0.047262    0.009645
      3          6           0       -0.185463   -1.234302   -0.006569
      4          6           0       -0.265787    1.183871    0.012241
      5          1           0       -0.687126   -2.187818   -0.018882
      6          6           0        1.210701   -1.183285   -0.007230
      7          1           0       -0.836157    2.110254    0.027323
      8          6           0        1.121823    1.216413    0.005716
      9          6           0        1.885574    0.056014   -0.000488
     10          1           0        1.630556    2.178130    0.009062
     11          1           0       -2.939882   -0.715150    0.274884
     12          1           0       -2.744538    0.869575   -0.209333
     13          1           0        1.844141   -2.085137   -0.014138
     14          1           0        2.975779    0.111294   -0.001453
 ---------------------------------------------------------------------

 SCF Done:  E(RwB97X) =  -287.511246417     A.U. after   14 cycles

 The electronic state is 1-A.
 Alpha  occ. eigenvalues --  -14.40219 -10.31063 -10.27054 -10.26481 -10.25997
 Alpha  occ. eigenvalues --  -10.25865 -10.25601  -1.03426  -0.95833  -0.86433
 Alpha  occ. eigenvalues --   -0.84678  -0.72426  -0.71037  -0.63615  -0.61563
 Alpha  occ. eigenvalues --   -0.58021  -0.53109  -0.52931  -0.51727  -0.48411
 Alpha  occ. eigenvalues --   -0.45092  -0.43126  -0.39795  -0.33337  -0.28224
 Alpha virt. eigenvalues --    0.09293   0.10971   0.18804   0.19951   0.23154
 Alpha virt. eigenvalues --    0.26112   0.27167   0.28406   0.29532   0.30625
 Alpha virt. eigenvalues --    0.36206   0.40684   0.42508   0.45486   0.45820

 Mulliken charges:
               1
     1  N   -0.850423
     2  C    0.335308
     3  C   -0.202579
     4  C   -0.216033
     5  H    0.150818
     6  C   -0.168004
     7  H    0.146256
     8  C   -0.159180
     9  C   -0.173228
    10  H    0.151752
    11  H    0.340737
    12  H    0.336029
    13  H    0.155824
    14  H    0.152723
 Sum of Mulliken charges =  -0.00000

 Dipole moment (field-independent basis, Debye):
    X=             -1.4353    Y=              0.1491    Z=              0.2639  Tot=              1.4669
 Quadrupole moment (field-independent basis, Debye-Ang):
   XX=            -32.4188   YY=            -36.0399   ZZ=            -45.6422
   XY=             -0.3863   XZ=             -0.8727   YZ=             -0.8130

 Normal termination of Gaussian 16 at Fri Sep 22 11:15:28 2023.
