 Gaussian 16, Revision A.03,
 Gaussian 16:  ES64L-G16RevA.03 25-Dec-2016

 ----------------
 # 6-31g(d) wb97x
 ----------------

 -----------------------
 tmpdir/M3_conf_0_19.gjf
 -----------------------
 Symbolic Z-matrix:
 Charge =  0 Multiplicity = 1

                         Standard orientation:
 ---------------------------------------------------------------------
 Center     Atomic      Atomic             Coordinates (Angstroms)
 Number     Number       Type             X           Y           Z
 ---------------------------------------------------------------------
      1          7           0       -0.744805   -0.000020   -0.113843
      2          6           0        0.706206    0.000026    0.013635
      3          1           0       -1.154862   -0.834067    0.301041
      4          1           0       -1.155306    0.833824    0.301275
      5          1           0        1.044324   -0.000224    1.068046
      6          1           0        1.120898    0.887015   -0.477455
      7          1           0        1.121347   -0.886561   -0.477812
 ---------------------------------------------------------------------

 SCF Done:  E(RwB97X) =  -95.8223000728     A.U. after   13 cycles

 The electronic state is 1-A.
 Alpha  occ. eigenvalues --  -14.38072 -10.27997  -0.99348  -0.77581  -0.59861
 Alpha  occ. eigenvalues --   -0.53738  -0.50605  -0.46896  -0.32299
 Alpha virt. eigenvalues --    0.18547   0.24143   0.25495   0.27715   0.29051
 Alpha virt. eigenvalues --    0.34258   0.66103   0.67233   0.69813   0.85038
 Alpha virt. eigenvalues --    0.87253   0.90071   0.97782   1.03155   1.04387

 Mulliken charges:
               1
     1  N   -0.742799
     2  C   -0.328173
     3  H    0.308204
     4  H    0.308204
     5  H    0.128171
     6  H    0.163193
     7  H    0.163199
 Sum of Mulliken charges =  -0.00000

 Dipole moment (field-independent basis, Debye):
    X=              0.1516    Y=             -0.0002    Z=              1.3580  Tot=              1.3664
 Quadrupole moment (field-independent basis, Debye-Ang):
   XX=            -13.4684   YY=            -12.2203   ZZ=            -15.2491
   XY=             -0.0006   XZ=             -2.0686   YZ=              0.0001

 Normal termination of Gaussian 16 at Fri Sep 22 11:10:36 2023.
