 Gaussian 16, Revision A.03,
 Gaussian 16:  ES64L-G16RevA.03 25-Dec-2016

 ----------------
 # 6-31g(d) wb97x
 ----------------

 -----------------------
 tmpdir/M3_conf_2_37.gjf
 -----------------------
 Symbolic Z-matrix:
 Charge =  0 Multiplicity = 1

                         Standard orientation:
 ---------------------------------------------------------------------
 Center     Atomic      Atomic             Coordinates (Angstroms)
 Number     Number       Type             X           Y           Z
 ---------------------------------------------------------------------
      1          7           0       -0.741653    0.002173   -0.115472
      2          6           0        0.706535    0.000717    0.012136
      3          1           0        0.991900   -0.032315    1.082975
      4          1           0       -1.127890    0.844343    0.305820
      5          1           0       -1.150382   -0.834192    0.286049
      6          1           0        1.102636   -0.895559   -0.479904
      7          1           0        1.136095    0.898211   -0.459447
 ---------------------------------------------------------------------

 SCF Done:  E(RwB97X) =  -95.8210804636     A.U. after   13 cycles

 The electronic state is 1-A.
 Alpha  occ. eigenvalues --  -14.37872 -10.28051  -0.99481  -0.77328  -0.60173
 Alpha  occ. eigenvalues --   -0.53483  -0.50696  -0.47032  -0.32082
 Alpha virt. eigenvalues --    0.18417   0.24298   0.25500   0.27532   0.29052
 Alpha virt. eigenvalues --    0.34155   0.66053   0.67739   0.69853   0.84856
 Alpha virt. eigenvalues --    0.87327   0.89342   0.97753   1.02746   1.04823

 Mulliken charges:
               1
     1  N   -0.742602
     2  C   -0.327870
     3  H    0.127943
     4  H    0.307188
     5  H    0.309521
     6  H    0.162758
     7  H    0.163063
 Sum of Mulliken charges =  -0.00000

 Dipole moment (field-independent basis, Debye):
    X=              0.1682    Y=             -0.0161    Z=              1.3608  Tot=              1.3712
 Quadrupole moment (field-independent basis, Debye-Ang):
   XX=            -13.6505   YY=            -12.1296   ZZ=            -15.2486
   XY=              0.0792   XZ=             -2.0847   YZ=              0.0241

 Normal termination of Gaussian 16 at Fri Sep 22 11:14:26 2023.
