 Gaussian 16, Revision A.03,
 Gaussian 16:  ES64L-G16RevA.03 25-Dec-2016

 ----------------
 # 6-31g(d) wb97x
 ----------------

 -----------------------
 tmpdir/M3_conf_1_51.gjf
 -----------------------
 Symbolic Z-matrix:
 Charge =  0 Multiplicity = 1

                         Standard orientation:
 ---------------------------------------------------------------------
 Center     Atomic      Atomic             Coordinates (Angstroms)
 Number     Number       Type             X           Y           Z
 ---------------------------------------------------------------------
      1          7           0        0.735235   -0.007129   -0.115493
      2          6           0       -0.698252   -0.006448    0.011493
      3          1           0        1.150351    0.838651    0.274541
      4          1           0        1.154850   -0.831357    0.316489
      5          1           0       -1.019160   -0.129123    1.064887
      6          1           0       -1.059068    0.980417   -0.308835
      7          1           0       -1.184106   -0.769997   -0.607588
 ---------------------------------------------------------------------

 SCF Done:  E(RwB97X) =  -95.8210641863     A.U. after   13 cycles

 The electronic state is 1-A.
 Alpha  occ. eigenvalues --  -14.38021 -10.27915  -0.99715  -0.77408  -0.60001
 Alpha  occ. eigenvalues --   -0.53928  -0.51003  -0.46544  -0.32136
 Alpha virt. eigenvalues --    0.18427   0.24135   0.24851   0.28042   0.29444
 Alpha virt. eigenvalues --    0.34897   0.66323   0.67301   0.70109   0.85001
 Alpha virt. eigenvalues --    0.87417   0.90419   0.97808   1.02940   1.04196

 Mulliken charges:
               1
     1  N   -0.740337
     2  C   -0.324499
     3  H    0.309046
     4  H    0.307201
     5  H    0.126241
     6  H    0.158328
     7  H    0.164019
 Sum of Mulliken charges =   0.00000

 Dipole moment (field-independent basis, Debye):
    X=             -0.1035    Y=              0.0837    Z=              1.3557  Tot=              1.3622
 Quadrupole moment (field-independent basis, Debye-Ang):
   XX=            -13.4799   YY=            -12.2284   ZZ=            -15.2613
   XY=              0.0536   XZ=              2.0650   YZ=             -0.0009

 Normal termination of Gaussian 16 at Fri Sep 22 11:12:48 2023.
