 Gaussian 16, Revision A.03,
 Gaussian 16:  ES64L-G16RevA.03 25-Dec-2016

 ----------------
 # 6-31g(d) wb97x
 ----------------

 -----------------------
 tmpdir/M3_conf_2_79.gjf
 -----------------------
 Symbolic Z-matrix:
 Charge =  0 Multiplicity = 1

                         Standard orientation:
 ---------------------------------------------------------------------
 Center     Atomic      Atomic             Coordinates (Angstroms)
 Number     Number       Type             X           Y           Z
 ---------------------------------------------------------------------
      1          6           0        0.911303   -0.006583   -0.000164
      2          6           0        2.419249    0.006075    0.000577
      3          1           0        2.785478    1.036288   -0.006665
      4          6           0        0.197246    1.185054   -0.003528
      5          6           0        0.184554   -1.216610    0.000618
      6          6           0       -1.190494    1.211204    0.000837
      7          1           0        0.746323    2.124330   -0.006102
      8          6           0       -1.212514   -1.208351   -0.000722
      9          6           0       -1.893448    0.008708    0.005858
     10          1           0       -1.721110    2.161016    0.008532
     11          1           0       -1.754172   -2.139779   -0.007121
     12          1           0        2.836305   -0.497624   -0.881437
     13          1           0        2.835966   -0.483451    0.891067
     14          1           0        0.779164   -2.144554    0.001092
     15          1           0       -3.003322    0.066791   -0.020225
 ---------------------------------------------------------------------

 SCF Done:  E(RwB97X) =  -271.485393709     A.U. after   13 cycles

 The electronic state is 1-A.
 Alpha  occ. eigenvalues --  -10.27763 -10.27111 -10.27035 -10.27016 -10.26820
 Alpha  occ. eigenvalues --  -10.26472 -10.26449  -0.98294  -0.89634  -0.86728
 Alpha  occ. eigenvalues --   -0.80517  -0.72021  -0.69563  -0.61873  -0.56242
 Alpha  occ. eigenvalues --   -0.55982  -0.52704  -0.52108  -0.50546  -0.48378
 Alpha  occ. eigenvalues --   -0.46087  -0.43528  -0.43005  -0.33685  -0.32541
 Alpha virt. eigenvalues --    0.08561   0.09294   0.18674   0.21765   0.23490
 Alpha virt. eigenvalues --    0.25115   0.25654   0.27257   0.28640   0.30112
 Alpha virt. eigenvalues --    0.30732   0.33757   0.40942   0.41597   0.42264

 Mulliken charges:
               1
     1  C    0.133740
     2  C   -0.544161
     3  H    0.167192
     4  C   -0.203410
     5  C   -0.198839
     6  C   -0.150923
     7  H    0.146373
     8  C   -0.157733
     9  C   -0.168987
    10  H    0.160069
    11  H    0.161163
    12  H    0.174412
    13  H    0.174568
    14  H    0.151372
    15  H    0.155163
 Sum of Mulliken charges =  -0.00000

 Dipole moment (field-independent basis, Debye):
    X=              0.3291    Y=             -0.0053    Z=             -0.0142  Tot=              0.3294
 Quadrupole moment (field-independent basis, Debye-Ang):
   XX=            -37.4670   YY=            -37.9464   ZZ=            -45.0908
   XY=             -0.2513   XZ=              0.0563   YZ=              0.0188

 Normal termination of Gaussian 16 at Fri Sep 22 11:15:11 2023.
