 Gaussian 16, Revision A.03,
 Gaussian 16:  ES64L-G16RevA.03 25-Dec-2016

 ----------------
 # 6-31g(d) wb97x
 ----------------

 -----------------------
 tmpdir/M3_conf_1_87.gjf
 -----------------------
 Symbolic Z-matrix:
 Charge =  0 Multiplicity = 1

                         Standard orientation:
 ---------------------------------------------------------------------
 Center     Atomic      Atomic             Coordinates (Angstroms)
 Number     Number       Type             X           Y           Z
 ---------------------------------------------------------------------
      1          7           0       -2.231384   -0.035554    0.006005
      2          6           0       -0.857256   -0.062404    0.000801
      3          7           0       -0.199809   -1.219228   -0.002935
      4          7           0       -0.308533    1.168398   -0.007295
      5          6           0        1.139045   -1.161465   -0.005414
      6          6           0        1.016168    1.200625   -0.002149
      7          6           0        1.810016    0.059388    0.004609
      8          1           0        1.469069    2.191400    0.002155
      9          1           0        2.890831    0.127497    0.039073
     10          1           0       -2.913792   -0.741251    0.012197
     11          1           0       -2.571002    0.914314   -0.003701
     12          1           0        1.655144   -2.104128   -0.007244
 ---------------------------------------------------------------------

 SCF Done:  E(RwB97X) =  -319.604425953     A.U. after   15 cycles

 The electronic state is 1-A.
 Alpha  occ. eigenvalues --  -14.41805 -14.40224 -14.39967 -10.37390 -10.32032
 Alpha  occ. eigenvalues --  -10.31883 -10.27123  -1.12741  -1.02557  -1.00998
 Alpha  occ. eigenvalues --   -0.89704  -0.78000  -0.76243  -0.66538  -0.64512
 Alpha  occ. eigenvalues --   -0.58772  -0.57757  -0.54895  -0.52673  -0.51366
 Alpha  occ. eigenvalues --   -0.42844  -0.41137  -0.40545  -0.34269  -0.31322
 Alpha virt. eigenvalues --    0.05723   0.09402   0.20184   0.21104   0.24279
 Alpha virt. eigenvalues --    0.25994   0.26920   0.27667   0.33545   0.35460
 Alpha virt. eigenvalues --    0.42631   0.43960   0.46437   0.49642   0.56621

 Mulliken charges:
               1
     1  N   -0.801721
     2  C    0.621005
     3  N   -0.455287
     4  N   -0.461619
     5  C    0.042410
     6  C    0.047678
     7  C   -0.230815
     8  H    0.175075
     9  H    0.169547
    10  H    0.357728
    11  H    0.356291
    12  H    0.179707
 Sum of Mulliken charges =  -0.00000

 Dipole moment (field-independent basis, Debye):
    X=              0.1292    Y=              0.1807    Z=              0.0319  Tot=              0.2245
 Quadrupole moment (field-independent basis, Debye-Ang):
   XX=            -28.0375   YY=            -40.8930   ZZ=            -42.2906
   XY=              0.1475   XZ=              0.0664   YZ=              0.0035

 Normal termination of Gaussian 16 at Fri Sep 22 11:13:53 2023.
