 Gaussian 16, Revision A.03,
 Gaussian 16:  ES64L-G16RevA.03 25-Dec-2016

 ----------------
 # 6-31g(d) wb97x
 ----------------

 ----------------------
 tmpdir/M3_conf_0_5.gjf
 ----------------------
 Symbolic Z-matrix:
 Charge =  0 Multiplicity = 1

                         Standard orientation:
 ---------------------------------------------------------------------
 Center     Atomic      Atomic             Coordinates (Angstroms)
 Number     Number       Type             X           Y           Z
 ---------------------------------------------------------------------
      1          1           0        1.099580   -0.058313    1.057002
      2          6           0        0.761045    0.001034    0.004709
      3          6           0       -0.760721    0.001640   -0.005707
      4          1           0        1.136468   -0.884888   -0.521142
      5          1           0        1.168753    0.936779   -0.513465
      6          1           0       -1.130069   -0.881764    0.528820
      7          1           0       -1.112455   -0.066128   -1.054738
      8          1           0       -1.164218    0.938271    0.509512
 ---------------------------------------------------------------------

 SCF Done:  E(RwB97X) =  -79.7971213440     A.U. after   12 cycles

 The electronic state is 1-A.
 Alpha  occ. eigenvalues --  -10.26090 -10.26071  -0.87881  -0.72421  -0.54454
 Alpha  occ. eigenvalues --   -0.54037  -0.46009  -0.43948  -0.43722
 Alpha virt. eigenvalues --    0.19224   0.25184   0.25235   0.25916   0.28180
 Alpha virt. eigenvalues --    0.28317   0.33588   0.61335   0.66099   0.66244
 Alpha virt. eigenvalues --    0.73703   0.74839   0.78855   0.97503   0.98844

 Mulliken charges:
               1
     1  H    0.154436
     2  C   -0.457705
     3  C   -0.458030
     4  H    0.157012
     5  H    0.146420
     6  H    0.156724
     7  H    0.154130
     8  H    0.147012
 Sum of Mulliken charges =  -0.00000

 Dipole moment (field-independent basis, Debye):
    X=             -0.0009    Y=             -0.0853    Z=              0.0042  Tot=              0.0854
 Quadrupole moment (field-independent basis, Debye-Ang):
   XX=            -15.7352   YY=            -14.6792   ZZ=            -14.6548
   XY=             -0.0038   XZ=             -0.0772   YZ=              0.0028

 Normal termination of Gaussian 16 at Fri Sep 22 11:10:30 2023.
