 Gaussian 16, Revision A.03,
 Gaussian 16:  ES64L-G16RevA.03 25-Dec-2016

 ----------------
 # 6-31g(d) wb97x
 ----------------

 -----------------------
 tmpdir/M3_conf_2_28.gjf
 -----------------------
 Symbolic Z-matrix:
 Charge =  0 Multiplicity = 1

                         Standard orientation:
 ---------------------------------------------------------------------
 Center     Atomic      Atomic             Coordinates (Angstroms)
 Number     Number       Type             X           Y           Z
 ---------------------------------------------------------------------
      1          7           0        0.742080   -0.000364   -0.114767
      2          6           0       -0.700126    0.000334    0.013521
      3          1           0       -1.147898   -0.869924   -0.478468
      4          1           0        1.153884    0.828118    0.309430
      5          1           0        1.151727   -0.839654    0.290080
      6          1           0       -1.037106   -0.011273    1.068235
      7          1           0       -1.114412    0.893278   -0.467030
 ---------------------------------------------------------------------

 SCF Done:  E(RwB97X) =  -95.8221493287     A.U. after   13 cycles

 The electronic state is 1-A.
 Alpha  occ. eigenvalues --  -14.38084 -10.27923  -0.99569  -0.77580  -0.59938
 Alpha  occ. eigenvalues --   -0.53867  -0.50809  -0.46726  -0.32277
 Alpha virt. eigenvalues --    0.18582   0.24132   0.25396   0.27782   0.29105
 Alpha virt. eigenvalues --    0.34640   0.66208   0.67239   0.69871   0.84999
 Alpha virt. eigenvalues --    0.87393   0.90083   0.97826   1.03283   1.04320

 Mulliken charges:
               1
     1  N   -0.740317
     2  C   -0.328735
     3  H    0.162639
     4  H    0.309045
     5  H    0.308339
     6  H    0.126591
     7  H    0.162437
 Sum of Mulliken charges =  -0.00000

 Dipole moment (field-independent basis, Debye):
    X=             -0.1365    Y=             -0.0152    Z=              1.3542  Tot=              1.3611
 Quadrupole moment (field-independent basis, Debye-Ang):
   XX=            -13.4347   YY=            -12.2396   ZZ=            -15.2661
   XY=              0.0091   XZ=              2.0831   YZ=              0.0143

 Normal termination of Gaussian 16 at Fri Sep 22 11:14:22 2023.
