 Gaussian 16, Revision A.03,
 Gaussian 16:  ES64L-G16RevA.03 25-Dec-2016

 ----------------
 # 6-31g(d) wb97x
 ----------------

 -----------------------
 tmpdir/M3_conf_0_64.gjf
 -----------------------
 Symbolic Z-matrix:
 Charge =  0 Multiplicity = 1

                         Standard orientation:
 ---------------------------------------------------------------------
 Center     Atomic      Atomic             Coordinates (Angstroms)
 Number     Number       Type             X           Y           Z
 ---------------------------------------------------------------------
      1          6           0        0.532786    0.255686    0.087249
      2          6           0        2.029584    0.466394    0.148565
      3          6           0       -0.390800    1.299867   -0.003817
      4          6           0        0.070923   -1.059883    0.094258
      5          6           0       -1.751956    1.030434   -0.073235
      6          1           0       -0.053359    2.332860   -0.062541
      7          6           0       -1.291328   -1.324758    0.040596
      8          1           0        0.797800   -1.865185    0.150690
      9          6           0       -2.217606   -0.285268   -0.047559
     10          1           0       -2.475194    1.838652   -0.144369
     11          1           0       -1.641634   -2.354925    0.066404
     12          8           0        2.804335   -0.394872   -0.239431
     13          1           0        2.337832    1.409665    0.566050
     14          1           0       -3.289756   -0.496925   -0.137130
 ---------------------------------------------------------------------

 SCF Done:  E(RwB97X) =  -345.471603251     A.U. after   15 cycles

 The electronic state is 1-A.
 Alpha  occ. eigenvalues --  -19.22084 -10.36671 -10.29231 -10.29026 -10.28930
 Alpha  occ. eigenvalues --  -10.28639 -10.28441 -10.28387  -1.16941  -1.00012
 Alpha  occ. eigenvalues --   -0.89782  -0.88556  -0.77559  -0.73719  -0.69843
 Alpha  occ. eigenvalues --   -0.64349  -0.59424  -0.57138  -0.54873  -0.54311
 Alpha  occ. eigenvalues --   -0.53624  -0.51143  -0.47522  -0.46807  -0.44943
 Alpha  occ. eigenvalues --   -0.36365  -0.35391  -0.34969
 Alpha virt. eigenvalues --    0.02502   0.07469   0.12353   0.18347   0.22016
 Alpha virt. eigenvalues --    0.24672   0.25198   0.26121   0.28106   0.28568
 Alpha virt. eigenvalues --    0.35190   0.35840   0.39425   0.40224   0.43165

 Mulliken charges:
               1
     1  C    0.019050
     2  C    0.201012
     3  C   -0.190787
     4  C   -0.170192
     5  C   -0.164928
     6  H    0.166831
     7  C   -0.165186
     8  H    0.191295
     9  C   -0.149359
    10  H    0.167964
    11  H    0.168692
    12  O   -0.389749
    13  H    0.142943
    14  H    0.172414
 Sum of Mulliken charges =  -0.00000

 Dipole moment (field-independent basis, Debye):
    X=             -2.5465    Y=              1.3165    Z=              0.6567  Tot=              2.9409
 Quadrupole moment (field-independent basis, Debye-Ang):
   XX=            -48.6361   YY=            -39.9678   ZZ=            -48.1938
   XY=              3.8441   XZ=              2.4660   YZ=             -0.4148

 Normal termination of Gaussian 16 at Fri Sep 22 11:11:10 2023.
