 Gaussian 16, Revision A.03,
 Gaussian 16:  ES64L-G16RevA.03 25-Dec-2016

 ----------------
 # 6-31g(d) wb97x
 ----------------

 -----------------------
 tmpdir/M3_conf_2_78.gjf
 -----------------------
 Symbolic Z-matrix:
 Charge =  0 Multiplicity = 1

                         Standard orientation:
 ---------------------------------------------------------------------
 Center     Atomic      Atomic             Coordinates (Angstroms)
 Number     Number       Type             X           Y           Z
 ---------------------------------------------------------------------
      1          6           0       -0.011007    0.000795   -0.004154
      2          1           0        0.447799   -0.792085   -0.601848
      3          1           0       -1.090803    0.055653   -0.154560
      4          1           0        0.219418   -0.211727    1.043354
      5          1           0        0.489628    0.943390   -0.262020
 ---------------------------------------------------------------------

 SCF Done:  E(RwB97X) =  -40.4990463640     A.U. after   11 cycles

 The electronic state is 1-A.
 Alpha  occ. eigenvalues --  -10.24928  -0.81754  -0.50234  -0.49135  -0.49040
 Alpha virt. eigenvalues --    0.21618   0.27338   0.27406   0.27814   0.63829
 Alpha virt. eigenvalues --    0.63981   0.64459   1.01292   1.01439   1.02468
 Alpha virt. eigenvalues --    1.07118   1.20909   1.75779   1.75866   2.34291

 Mulliken charges:
               1
     1  C   -0.667563
     2  H    0.166393
     3  H    0.170270
     4  H    0.165592
     5  H    0.165307
 Sum of Mulliken charges =   0.00000

 Dipole moment (field-independent basis, Debye):
    X=              0.0361    Y=             -0.0069    Z=              0.0172  Tot=              0.0406
 Quadrupole moment (field-independent basis, Debye-Ang):
   XX=             -8.1039   YY=             -8.3143   ZZ=             -8.3449
   XY=             -0.0059   XZ=              0.0053   YZ=              0.0032

 Normal termination of Gaussian 16 at Fri Sep 22 11:14:52 2023.
