 Gaussian 16, Revision A.03,
 Gaussian 16:  ES64L-G16RevA.03 25-Dec-2016

 ----------------
 # 6-31g(d) wb97x
 ----------------

 -----------------------
 tmpdir/M3_conf_1_77.gjf
 -----------------------
 Symbolic Z-matrix:
 Charge =  0 Multiplicity = 1

                         Standard orientation:
 ---------------------------------------------------------------------
 Center     Atomic      Atomic             Coordinates (Angstroms)
 Number     Number       Type             X           Y           Z
 ---------------------------------------------------------------------
      1          6           0        0.011073    0.000132   -0.004208
      2          1           0       -0.449433   -0.878214   -0.469572
      3          1           0        1.090024    0.031961   -0.166849
      4          1           0       -0.213860   -0.045077    1.064849
      5          1           0       -0.493169    0.890538   -0.403181
 ---------------------------------------------------------------------

 SCF Done:  E(RwB97X) =  -40.4990413071     A.U. after   11 cycles

 The electronic state is 1-A.
 Alpha  occ. eigenvalues --  -10.24950  -0.81739  -0.50231  -0.49121  -0.49031
 Alpha virt. eigenvalues --    0.21605   0.27314   0.27391   0.27805   0.63843
 Alpha virt. eigenvalues --    0.64005   0.64464   1.01250   1.01389   1.02452
 Alpha virt. eigenvalues --    1.07038   1.20895   1.75790   1.75875   2.34263

 Mulliken charges:
               1
     1  C   -0.667347
     2  H    0.166047
     3  H    0.170339
     4  H    0.165674
     5  H    0.165286
 Sum of Mulliken charges =   0.00000

 Dipole moment (field-independent basis, Debye):
    X=             -0.0355    Y=             -0.0029    Z=              0.0189  Tot=              0.0403
 Quadrupole moment (field-independent basis, Debye-Ang):
   XX=             -8.1054   YY=             -8.3154   ZZ=             -8.3464
   XY=              0.0040   XZ=             -0.0073   YZ=              0.0022

 Normal termination of Gaussian 16 at Fri Sep 22 11:13:01 2023.
