 Gaussian 16, Revision A.03,
 Gaussian 16:  ES64L-G16RevA.03 25-Dec-2016

 ----------------
 # 6-31g(d) wb97x
 ----------------

 -----------------------
 tmpdir/M3_conf_2_80.gjf
 -----------------------
 Symbolic Z-matrix:
 Charge =  0 Multiplicity = 1

                         Standard orientation:
 ---------------------------------------------------------------------
 Center     Atomic      Atomic             Coordinates (Angstroms)
 Number     Number       Type             X           Y           Z
 ---------------------------------------------------------------------
      1          6           0        0.911119   -0.006538   -0.000173
      2          6           0        2.419066    0.006112    0.000565
      3          1           0        2.837366   -0.497319   -0.881016
      4          6           0        0.197070    1.185102   -0.003530
      5          6           0        0.184364   -1.216560    0.000595
      6          6           0       -1.190671    1.211268    0.000839
      7          1           0        0.746151    2.124381   -0.006094
      8          6           0       -1.212704   -1.208293   -0.000737
      9          6           0       -1.893631    0.008769    0.005852
     10          1           0       -1.721281    2.161076    0.008541
     11          1           0       -1.754367   -2.139726   -0.007142
     12          1           0        2.793205    1.033488   -0.006648
     13          1           0        2.835781   -0.483420    0.891054
     14          1           0        0.778969   -2.144504    0.001069
     15          1           0       -3.003505    0.066860   -0.020231
 ---------------------------------------------------------------------

 SCF Done:  E(RwB97X) =  -271.485401429     A.U. after   13 cycles

 The electronic state is 1-A.
 Alpha  occ. eigenvalues --  -10.27772 -10.27113 -10.27039 -10.27018 -10.26819
 Alpha  occ. eigenvalues --  -10.26471 -10.26448  -0.98294  -0.89628  -0.86728
 Alpha  occ. eigenvalues --   -0.80523  -0.72018  -0.69572  -0.61880  -0.56227
 Alpha  occ. eigenvalues --   -0.55987  -0.52696  -0.52107  -0.50557  -0.48360
 Alpha  occ. eigenvalues --   -0.46087  -0.43529  -0.43010  -0.33686  -0.32543
 Alpha virt. eigenvalues --    0.08560   0.09293   0.18687   0.21765   0.23495
 Alpha virt. eigenvalues --    0.25117   0.25656   0.27242   0.28645   0.30073
 Alpha virt. eigenvalues --    0.30736   0.33769   0.40942   0.41608   0.42260

 Mulliken charges:
               1
     1  C    0.134379
     2  C   -0.545034
     3  H    0.174363
     4  C   -0.203444
     5  C   -0.198965
     6  C   -0.150908
     7  H    0.146477
     8  C   -0.157717
     9  C   -0.168992
    10  H    0.160072
    11  H    0.161195
    12  H    0.167448
    13  H    0.174499
    14  H    0.151456
    15  H    0.155172
 Sum of Mulliken charges =  -0.00000

 Dipole moment (field-independent basis, Debye):
    X=              0.3311    Y=             -0.0040    Z=             -0.0142  Tot=              0.3314
 Quadrupole moment (field-independent basis, Debye-Ang):
   XX=            -37.4423   YY=            -37.9516   ZZ=            -45.0928
   XY=             -0.2397   XZ=              0.0552   YZ=              0.0183

 Normal termination of Gaussian 16 at Fri Sep 22 11:15:11 2023.
