 Gaussian 16, Revision A.03,
 Gaussian 16:  ES64L-G16RevA.03 25-Dec-2016

 ----------------
 # 6-31g(d) wb97x
 ----------------

 ----------------------
 tmpdir/M3_conf_0_3.gjf
 ----------------------
 Symbolic Z-matrix:
 Charge =  0 Multiplicity = 1

                         Standard orientation:
 ---------------------------------------------------------------------
 Center     Atomic      Atomic             Coordinates (Angstroms)
 Number     Number       Type             X           Y           Z
 ---------------------------------------------------------------------
      1          6           0       -0.711233   -0.000028    0.011498
      2          7           0        0.748719    0.001479   -0.112401
      3          1           0       -1.026914   -0.014479    1.072437
      4          1           0       -1.105077   -0.902956   -0.470072
      5          1           0       -1.136031    0.891602   -0.476418
      6          1           0        1.131997    0.851393    0.303278
      7          1           0        1.162391   -0.835747    0.288597
 ---------------------------------------------------------------------

 SCF Done:  E(RwB97X) =  -95.8214094852     A.U. after   13 cycles

 The electronic state is 1-A.
 Alpha  occ. eigenvalues --  -14.38029 -10.28126  -0.99105  -0.77417  -0.60013
 Alpha  occ. eigenvalues --   -0.53383  -0.50411  -0.47124  -0.32162
 Alpha virt. eigenvalues --    0.18419   0.24133   0.25528   0.27586   0.29012
 Alpha virt. eigenvalues --    0.33806   0.65968   0.67603   0.69670   0.84756
 Alpha virt. eigenvalues --    0.87572   0.89465   0.97751   1.02393   1.04608

 Mulliken charges:
               1
     1  C   -0.328060
     2  N   -0.745148
     3  H    0.129517
     4  H    0.162908
     5  H    0.163062
     6  H    0.307549
     7  H    0.310172
 Sum of Mulliken charges =   0.00000

 Dipole moment (field-independent basis, Debye):
    X=             -0.1791    Y=             -0.0119    Z=              1.3526  Tot=              1.3645
 Quadrupole moment (field-independent basis, Debye-Ang):
   XX=            -13.5810   YY=            -12.1198   ZZ=            -15.2769
   XY=             -0.0721   XZ=              2.0416   YZ=              0.0179

 Normal termination of Gaussian 16 at Fri Sep 22 11:10:35 2023.
