 Gaussian 16, Revision A.03,
 Gaussian 16:  ES64L-G16RevA.03 25-Dec-2016

 ----------------
 # 6-31g(d) wb97x
 ----------------

 -----------------------
 tmpdir/M3_conf_2_87.gjf
 -----------------------
 Symbolic Z-matrix:
 Charge =  0 Multiplicity = 1

                         Standard orientation:
 ---------------------------------------------------------------------
 Center     Atomic      Atomic             Coordinates (Angstroms)
 Number     Number       Type             X           Y           Z
 ---------------------------------------------------------------------
      1          7           0       -2.234744   -0.035545    0.006006
      2          6           0       -0.856517   -0.062440    0.000794
      3          7           0       -0.199041   -1.219247   -0.002938
      4          7           0       -0.307825    1.168376   -0.007299
      5          6           0        1.139812   -1.161451   -0.005410
      6          6           0        1.016876    1.200636   -0.002146
      7          6           0        1.810752    0.059419    0.004616
      8          1           0        1.469752    2.191423    0.002160
      9          1           0        2.891565    0.127555    0.039086
     10          1           0       -2.917135   -0.741259    0.012194
     11          1           0       -2.574386    0.914315   -0.003702
     12          1           0        1.655935   -2.104101   -0.007238
 ---------------------------------------------------------------------

 SCF Done:  E(RwB97X) =  -319.604293580     A.U. after   15 cycles

 The electronic state is 1-A.
 Alpha  occ. eigenvalues --  -14.41782 -14.40256 -14.40000 -10.37434 -10.32053
 Alpha  occ. eigenvalues --  -10.31903 -10.27154  -1.12712  -1.02471  -1.01014
 Alpha  occ. eigenvalues --   -0.89728  -0.78001  -0.76242  -0.66501  -0.64478
 Alpha  occ. eigenvalues --   -0.58770  -0.57766  -0.54879  -0.52681  -0.51390
 Alpha  occ. eigenvalues --   -0.42794  -0.41149  -0.40564  -0.34287  -0.31341
 Alpha virt. eigenvalues --    0.05705   0.09357   0.20188   0.21086   0.24306
 Alpha virt. eigenvalues --    0.25967   0.26917   0.27652   0.33496   0.35436
 Alpha virt. eigenvalues --    0.42478   0.43889   0.46402   0.49627   0.56582

 Mulliken charges:
               1
     1  N   -0.802455
     2  C    0.620084
     3  N   -0.454674
     4  N   -0.460806
     5  C    0.042302
     6  C    0.047561
     7  C   -0.230469
     8  H    0.175219
     9  H    0.169751
    10  H    0.357587
    11  H    0.356039
    12  H    0.179860
 Sum of Mulliken charges =  -0.00000

 Dipole moment (field-independent basis, Debye):
    X=              0.1532    Y=              0.1811    Z=              0.0318  Tot=              0.2393
 Quadrupole moment (field-independent basis, Debye-Ang):
   XX=            -28.0575   YY=            -40.8811   ZZ=            -42.2978
   XY=              0.1462   XZ=              0.0667   YZ=              0.0035

 Normal termination of Gaussian 16 at Fri Sep 22 11:15:44 2023.
