 Gaussian 16, Revision A.03,
 Gaussian 16:  ES64L-G16RevA.03 25-Dec-2016

 ----------------
 # 6-31g(d) wb97x
 ----------------

 -----------------------
 tmpdir/M3_conf_1_53.gjf
 -----------------------
 Symbolic Z-matrix:
 Charge =  0 Multiplicity = 1

                         Standard orientation:
 ---------------------------------------------------------------------
 Center     Atomic      Atomic             Coordinates (Angstroms)
 Number     Number       Type             X           Y           Z
 ---------------------------------------------------------------------
      1          6           0       -1.285122   -0.192324    0.020379
      2          7           0       -0.000421    0.471784   -0.150830
      3          6           0        1.280528   -0.189308    0.019439
      4          1           0       -1.412373   -0.566072    1.054582
      5          1           0       -1.330251   -1.053054   -0.657423
      6          1           0       -2.107442    0.502612   -0.212824
      7          1           0        0.048012    1.295377    0.450324
      8          1           0        1.480668   -0.433777    1.081442
      9          1           0        1.232580   -1.147896   -0.514885
     10          1           0        2.119318    0.390111   -0.384316
 ---------------------------------------------------------------------

 SCF Done:  E(RwB97X) =  -135.114646319     A.U. after   13 cycles

 The electronic state is 1-A.
 Alpha  occ. eigenvalues --  -14.38340 -10.28392 -10.28127  -1.01497  -0.82806
 Alpha  occ. eigenvalues --   -0.73717  -0.59159  -0.54429  -0.53628  -0.49158
 Alpha  occ. eigenvalues --   -0.47802  -0.45064  -0.30142
 Alpha virt. eigenvalues --    0.18241   0.24002   0.24258   0.24907   0.27004
 Alpha virt. eigenvalues --    0.28128   0.29058   0.31337   0.37252   0.59619
 Alpha virt. eigenvalues --    0.65740   0.67549   0.70220   0.71504   0.84623

 Mulliken charges:
               1
     1  C   -0.315624
     2  N   -0.562075
     3  C   -0.321061
     4  H    0.126331
     5  H    0.160244
     6  H    0.167054
     7  H    0.297689
     8  H    0.125278
     9  H    0.154169
    10  H    0.167995
 Sum of Mulliken charges =  -0.00000

 Dipole moment (field-independent basis, Debye):
    X=             -0.0128    Y=             -0.1005    Z=              0.9527  Tot=              0.9581
 Quadrupole moment (field-independent basis, Debye-Ang):
   XX=            -19.1989   YY=            -19.8792   ZZ=            -21.7251
   XY=              0.0550   XZ=              0.0054   YZ=              1.7510

 Normal termination of Gaussian 16 at Fri Sep 22 11:12:49 2023.
