 Gaussian 16, Revision A.03,
 Gaussian 16:  ES64L-G16RevA.03 25-Dec-2016

 ----------------
 # 6-31g(d) wb97x
 ----------------

 -----------------------
 tmpdir/M3_conf_2_88.gjf
 -----------------------
 Symbolic Z-matrix:
 Charge =  0 Multiplicity = 1

                         Standard orientation:
 ---------------------------------------------------------------------
 Center     Atomic      Atomic             Coordinates (Angstroms)
 Number     Number       Type             X           Y           Z
 ---------------------------------------------------------------------
      1          6           0        0.917374   -0.059402    0.000345
      2          7           0        2.319365   -0.041981    0.000709
      3          1           0        2.752045    0.868750    0.032825
      4          6           0        0.171282   -1.240604   -0.000149
      5          6           0        0.274988    1.197447   -0.001041
      6          6           0       -1.221729   -1.174480    0.006711
      7          1           0        0.675166   -2.193009   -0.006138
      8          6           0       -1.113992    1.221887   -0.004230
      9          6           0       -1.870331    0.058069    0.000945
     10          1           0       -1.620613    2.184736   -0.007317
     11          1           0       -2.957056    0.110266    0.008759
     12          1           0        2.983026   -0.737490   -0.028788
     13          1           0        0.844663    2.128612   -0.001138
     14          1           0       -1.858342   -2.085503   -0.018654
 ---------------------------------------------------------------------

 SCF Done:  E(RwB97X) =  -287.510623897     A.U. after   14 cycles

 The electronic state is 1-A.
 Alpha  occ. eigenvalues --  -14.40532 -10.31434 -10.26852 -10.26402 -10.26013
 Alpha  occ. eigenvalues --  -10.25789 -10.25115  -1.03803  -0.95878  -0.86370
 Alpha  occ. eigenvalues --   -0.84655  -0.72374  -0.71332  -0.63749  -0.61180
 Alpha  occ. eigenvalues --   -0.58222  -0.52930  -0.52535  -0.51639  -0.48786
 Alpha  occ. eigenvalues --   -0.44856  -0.43081  -0.40402  -0.33294  -0.27826
 Alpha virt. eigenvalues --    0.09386   0.11408   0.18712   0.19821   0.22868
 Alpha virt. eigenvalues --    0.26212   0.27296   0.28630   0.29247   0.30292
 Alpha virt. eigenvalues --    0.36507   0.40977   0.42442   0.45450   0.46433

 Mulliken charges:
               1
     1  C    0.349485
     2  N   -0.856336
     3  H    0.335131
     4  C   -0.205699
     5  C   -0.221258
     6  C   -0.163562
     7  H    0.148600
     8  C   -0.157681
     9  C   -0.173468
    10  H    0.151501
    11  H    0.149284
    12  H    0.341214
    13  H    0.147629
    14  H    0.155159
 Sum of Mulliken charges =  -0.00000

 Dipole moment (field-independent basis, Debye):
    X=              1.6956    Y=              0.1109    Z=             -0.0182  Tot=              1.6994
 Quadrupole moment (field-independent basis, Debye-Ang):
   XX=            -31.6973   YY=            -35.9754   ZZ=            -45.9214
   XY=              0.2170   XZ=             -0.0091   YZ=              0.1531

 Normal termination of Gaussian 16 at Fri Sep 22 11:15:34 2023.
