 Gaussian 16, Revision A.03,
 Gaussian 16:  ES64L-G16RevA.03 25-Dec-2016

 ----------------
 # 6-31g(d) wb97x
 ----------------

 -----------------------
 tmpdir/M3_conf_1_71.gjf
 -----------------------
 Symbolic Z-matrix:
 Charge =  0 Multiplicity = 1

                         Standard orientation:
 ---------------------------------------------------------------------
 Center     Atomic      Atomic             Coordinates (Angstroms)
 Number     Number       Type             X           Y           Z
 ---------------------------------------------------------------------
      1          7           0       -2.340196   -0.032816   -0.021096
      2          6           0       -0.916003   -0.047292    0.009706
      3          6           0       -0.184145   -1.234319   -0.006534
      4          6           0       -0.264512    1.183853    0.012278
      5          1           0       -0.685792   -2.187844   -0.018829
      6          6           0        1.212018   -1.183276   -0.007245
      7          1           0       -0.834898    2.110226    0.027380
      8          6           0        1.123097    1.216420    0.005704
      9          6           0        1.886868    0.056035   -0.000527
     10          1           0        1.631812    2.178146    0.009032
     11          1           0       -2.945762   -0.715143    0.274860
     12          1           0       -2.750463    0.869585   -0.209364
     13          1           0        1.845474   -2.085117   -0.014175
     14          1           0        2.977073    0.111334   -0.001530
 ---------------------------------------------------------------------

 SCF Done:  E(RwB97X) =  -287.510878661     A.U. after   14 cycles

 The electronic state is 1-A.
 Alpha  occ. eigenvalues --  -14.40185 -10.31124 -10.27081 -10.26509 -10.26041
 Alpha  occ. eigenvalues --  -10.25910 -10.25647  -1.03226  -0.95846  -0.86457
 Alpha  occ. eigenvalues --   -0.84713  -0.72408  -0.71017  -0.63580  -0.61502
 Alpha  occ. eigenvalues --   -0.57975  -0.53141  -0.52935  -0.51752  -0.48384
 Alpha  occ. eigenvalues --   -0.45106  -0.43150  -0.39725  -0.33362  -0.28275
 Alpha virt. eigenvalues --    0.09271   0.10915   0.18818   0.19906   0.23180
 Alpha virt. eigenvalues --    0.26074   0.27174   0.28381   0.29507   0.30611
 Alpha virt. eigenvalues --    0.36033   0.40655   0.42473   0.45423   0.45617

 Mulliken charges:
               1
     1  N   -0.851117
     2  C    0.333387
     3  C   -0.202239
     4  C   -0.215188
     5  H    0.151310
     6  C   -0.168121
     7  H    0.146693
     8  C   -0.159328
     9  C   -0.172805
    10  H    0.151993
    11  H    0.340612
    12  H    0.335721
    13  H    0.156056
    14  H    0.153026
 Sum of Mulliken charges =  -0.00000

 Dipole moment (field-independent basis, Debye):
    X=             -1.3970    Y=              0.1501    Z=              0.2646  Tot=              1.4298
 Quadrupole moment (field-independent basis, Debye-Ang):
   XX=            -32.4596   YY=            -36.0135   ZZ=            -45.6518
   XY=             -0.3898   XZ=             -0.8760   YZ=             -0.8146

 Normal termination of Gaussian 16 at Fri Sep 22 11:13:34 2023.
