 Gaussian 16, Revision A.03,
 Gaussian 16:  ES64L-G16RevA.03 25-Dec-2016

 ----------------
 # 6-31g(d) wb97x
 ----------------

 -----------------------
 tmpdir/M3_conf_0_48.gjf
 -----------------------
 Symbolic Z-matrix:
 Charge =  0 Multiplicity = 1

                         Standard orientation:
 ---------------------------------------------------------------------
 Center     Atomic      Atomic             Coordinates (Angstroms)
 Number     Number       Type             X           Y           Z
 ---------------------------------------------------------------------
      1          1           0       -0.161616   -0.458863    0.980762
      2          6           0       -0.001666    0.001924   -0.000162
      3          1           0       -0.560808   -0.584554   -0.754688
      4          1           0       -0.387815    1.033057    0.008329
      5          1           0        1.120234   -0.001185   -0.233433
 ---------------------------------------------------------------------

 SCF Done:  E(RwB97X) =  -40.4976280186     A.U. after   11 cycles

 The electronic state is 1-A.
 Alpha  occ. eigenvalues --  -10.25721  -0.81226  -0.49509  -0.49180  -0.48770
 Alpha virt. eigenvalues --    0.21076   0.26336   0.27114   0.27435   0.64024
 Alpha virt. eigenvalues --    0.64242   0.65616   0.98594   1.00787   1.01449
 Alpha virt. eigenvalues --    1.04966   1.20200   1.76047   1.76228   2.29729

 Mulliken charges:
               1
     1  H    0.168384
     2  C   -0.658449
     3  H    0.165707
     4  H    0.167755
     5  H    0.156602
 Sum of Mulliken charges =  -0.00000

 Dipole moment (field-independent basis, Debye):
    X=             -0.0382    Y=             -0.0063    Z=              0.0207  Tot=              0.0439
 Quadrupole moment (field-independent basis, Debye-Ang):
   XX=             -8.2330   YY=             -8.3085   ZZ=             -8.3631
   XY=             -0.0048   XZ=              0.0156   YZ=             -0.0101

 Normal termination of Gaussian 16 at Fri Sep 22 11:10:46 2023.
