 Gaussian 16, Revision A.03,
 Gaussian 16:  ES64L-G16RevA.03 25-Dec-2016

 ----------------
 # 6-31g(d) wb97x
 ----------------

 -----------------------
 tmpdir/M3_conf_2_67.gjf
 -----------------------
 Symbolic Z-matrix:
 Charge =  0 Multiplicity = 1

                         Standard orientation:
 ---------------------------------------------------------------------
 Center     Atomic      Atomic             Coordinates (Angstroms)
 Number     Number       Type             X           Y           Z
 ---------------------------------------------------------------------
      1          6           0        0.534807    0.255470    0.087120
      2          6           0        2.021530    0.464654    0.147985
      3          8           0        2.801140   -0.392765   -0.238784
      4          6           0       -0.388724    1.299728   -0.003568
      5          6           0        0.072860   -1.060065    0.093979
      6          6           0       -1.749900    1.030394   -0.072982
      7          1           0       -0.051228    2.332718   -0.062003
      8          6           0       -1.289409   -1.324854    0.040341
      9          1           0        0.799688   -1.865429    0.150281
     10          6           0       -2.215624   -0.285299   -0.047643
     11          1           0       -2.473098    1.838681   -0.143818
     12          1           0       -1.639781   -2.354999    0.066032
     13          1           0        2.329856    1.407849    0.565580
     14          1           0       -3.287792   -0.496866   -0.137187
 ---------------------------------------------------------------------

 SCF Done:  E(RwB97X) =  -345.471901387     A.U. after   15 cycles

 The electronic state is 1-A.
 Alpha  occ. eigenvalues --  -19.21993 -10.36539 -10.29267 -10.29066 -10.28881
 Alpha  occ. eigenvalues --  -10.28667 -10.28469 -10.28415  -1.16893  -1.00061
 Alpha  occ. eigenvalues --   -0.89889  -0.88590  -0.77656  -0.73769  -0.69817
 Alpha  occ. eigenvalues --   -0.64368  -0.59481  -0.57172  -0.54889  -0.54291
 Alpha  occ. eigenvalues --   -0.53648  -0.51158  -0.47497  -0.46826  -0.44967
 Alpha  occ. eigenvalues --   -0.36349  -0.35417  -0.34990
 Alpha virt. eigenvalues --    0.02446   0.07439   0.12441   0.18343   0.22026
 Alpha virt. eigenvalues --    0.24714   0.25191   0.26104   0.28096   0.28608
 Alpha virt. eigenvalues --    0.35299   0.35922   0.39394   0.40291   0.43176

 Mulliken charges:
               1
     1  C    0.021407
     2  C    0.199435
     3  O   -0.391189
     4  C   -0.190339
     5  C   -0.169795
     6  C   -0.165179
     7  H    0.167274
     8  C   -0.165448
     9  H    0.191732
    10  C   -0.149030
    11  H    0.168152
    12  H    0.168852
    13  H    0.141474
    14  H    0.172654
 Sum of Mulliken charges =  -0.00000

 Dipole moment (field-independent basis, Debye):
    X=             -2.5917    Y=              1.3040    Z=              0.6532  Tot=              2.9738
 Quadrupole moment (field-independent basis, Debye-Ang):
   XX=            -48.7201   YY=            -39.9587   ZZ=            -48.1815
   XY=              3.7994   XZ=              2.4524   YZ=             -0.4211

 Normal termination of Gaussian 16 at Fri Sep 22 11:15:19 2023.
