 Gaussian 16, Revision A.03,
 Gaussian 16:  ES64L-G16RevA.03 25-Dec-2016

 ----------------
 # 6-31g(d) wb97x
 ----------------

 -----------------------
 tmpdir/M3_conf_0_38.gjf
 -----------------------
 Symbolic Z-matrix:
 Charge =  0 Multiplicity = 1

                         Standard orientation:
 ---------------------------------------------------------------------
 Center     Atomic      Atomic             Coordinates (Angstroms)
 Number     Number       Type             X           Y           Z
 ---------------------------------------------------------------------
      1          7           0        1.160887   -0.330785   -0.114747
      2          6           0        0.054033    0.595339    0.060470
      3          6           0       -1.210994   -0.244373   -0.032493
      4          1           0        1.119388   -1.061445    0.592594
      5          1           0        2.053195    0.150187   -0.099039
      6          1           0        0.097958    1.350936   -0.732909
      7          1           0        0.118732    1.123065    1.033374
      8          1           0       -2.087865    0.392571    0.127278
      9          1           0       -1.284982   -0.676693   -1.049112
     10          1           0       -1.200872   -1.068925    0.763181
 ---------------------------------------------------------------------

 SCF Done:  E(RwB97X) =  -135.126258114     A.U. after   12 cycles

 The electronic state is 1-A.
 Alpha  occ. eigenvalues --  -14.37705 -10.28472 -10.25863  -1.00239  -0.84639
 Alpha  occ. eigenvalues --   -0.71653  -0.60058  -0.56641  -0.52369  -0.46386
 Alpha  occ. eigenvalues --   -0.45659  -0.44574  -0.32293
 Alpha virt. eigenvalues --    0.18189   0.22265   0.23287   0.26065   0.27024
 Alpha virt. eigenvalues --    0.29325   0.30100   0.33878   0.35432   0.63521
 Alpha virt. eigenvalues --    0.67422   0.68064   0.69001   0.79055   0.79370

 Mulliken charges:
               1
     1  N   -0.740579
     2  C   -0.144736
     3  C   -0.460780
     4  H    0.301608
     5  H    0.306992
     6  H    0.153981
     7  H    0.122975
     8  H    0.152327
     9  H    0.173166
    10  H    0.135046
 Sum of Mulliken charges =  -0.00000

 Dipole moment (field-independent basis, Debye):
    X=              0.2756    Y=              0.5446    Z=              1.1078  Tot=              1.2649
 Quadrupole moment (field-independent basis, Debye-Ang):
   XX=            -19.1400   YY=            -20.2856   ZZ=            -21.1495
   XY=              0.6305   XZ=              1.5462   YZ=             -1.8031

 Normal termination of Gaussian 16 at Fri Sep 22 11:10:48 2023.
