 Gaussian 16, Revision A.03,
 Gaussian 16:  ES64L-G16RevA.03 25-Dec-2016

 ----------------
 # 6-31g(d) wb97x
 ----------------

 -----------------------
 tmpdir/M3_conf_2_13.gjf
 -----------------------
 Symbolic Z-matrix:
 Charge =  0 Multiplicity = 1

                         Standard orientation:
 ---------------------------------------------------------------------
 Center     Atomic      Atomic             Coordinates (Angstroms)
 Number     Number       Type             X           Y           Z
 ---------------------------------------------------------------------
      1          6           0        0.762096    0.002042    0.005413
      2          6           0       -0.759667    0.000127   -0.005058
      3          1           0       -1.148555   -0.646930    0.790318
      4          1           0        1.114475    0.299233    1.011863
      5          1           0        1.130604   -1.010894   -0.195745
      6          1           0        1.162791    0.706659   -0.802847
      7          1           0       -1.111391   -0.416943   -0.970003
      8          1           0       -1.162500    1.055865    0.164283
 ---------------------------------------------------------------------

 SCF Done:  E(RwB97X) =  -79.7972883809     A.U. after   12 cycles

 The electronic state is 1-A.
 Alpha  occ. eigenvalues --  -10.26108 -10.26070  -0.87858  -0.72470  -0.54423
 Alpha  occ. eigenvalues --   -0.53991  -0.46080  -0.43978  -0.43675
 Alpha virt. eigenvalues --    0.19253   0.25147   0.25258   0.25864   0.28157
 Alpha virt. eigenvalues --    0.28381   0.33647   0.61372   0.66020   0.66167
 Alpha virt. eigenvalues --    0.73895   0.74829   0.78856   0.97472   0.98865

 Mulliken charges:
               1
     1  C   -0.457426
     2  C   -0.458709
     3  H    0.156819
     4  H    0.154970
     5  H    0.156971
     6  H    0.146674
     7  H    0.154079
     8  H    0.146621
 Sum of Mulliken charges =   0.00000

 Dipole moment (field-independent basis, Debye):
    X=             -0.0028    Y=             -0.0800    Z=              0.0295  Tot=              0.0853
 Quadrupole moment (field-independent basis, Debye-Ang):
   XX=            -15.6989   YY=            -14.6852   ZZ=            -14.6678
   XY=             -0.0054   XZ=             -0.0671   YZ=              0.0196

 Normal termination of Gaussian 16 at Fri Sep 22 11:14:15 2023.
