 Gaussian 16, Revision A.03,
 Gaussian 16:  ES64L-G16RevA.03 25-Dec-2016

 ----------------
 # 6-31g(d) wb97x
 ----------------

 -----------------------
 tmpdir/M3_conf_0_85.gjf
 -----------------------
 Symbolic Z-matrix:
 Charge =  0 Multiplicity = 1

                         Standard orientation:
 ---------------------------------------------------------------------
 Center     Atomic      Atomic             Coordinates (Angstroms)
 Number     Number       Type             X           Y           Z
 ---------------------------------------------------------------------
      1          6           0        0.922058   -0.059252    0.000351
      2          7           0        2.297750   -0.042060    0.000714
      3          6           0        0.176050   -1.240506   -0.000149
      4          6           0        0.279583    1.197548   -0.001042
      5          6           0       -1.216966   -1.174479    0.006705
      6          1           0        0.680002   -2.192872   -0.006133
      7          6           0       -1.109399    1.221895   -0.004228
      8          6           0       -1.865656    0.058022    0.000944
      9          1           0       -1.616089    2.184709   -0.007322
     10          1           0       -2.952384    0.110135    0.008754
     11          1           0        2.733061    0.867412    0.032793
     12          1           0        2.961460   -0.737523   -0.028782
     13          1           0        0.849191    2.128749   -0.001123
     14          1           0       -1.853514   -2.085558   -0.018667
 ---------------------------------------------------------------------

 SCF Done:  E(RwB97X) =  -287.511014103     A.U. after   14 cycles

 The electronic state is 1-A.
 Alpha  occ. eigenvalues --  -14.40687 -10.31208 -10.26745 -10.26293 -10.25838
 Alpha  occ. eigenvalues --  -10.25612 -10.24929  -1.04609  -0.95803  -0.86273
 Alpha  occ. eigenvalues --   -0.84541  -0.72462  -0.71472  -0.63871  -0.61418
 Alpha  occ. eigenvalues --   -0.58351  -0.52894  -0.52358  -0.51527  -0.49004
 Alpha  occ. eigenvalues --   -0.44778  -0.42972  -0.40665  -0.33195  -0.27627
 Alpha virt. eigenvalues --    0.09477   0.11649   0.18639   0.19982   0.22749
 Alpha virt. eigenvalues --    0.26339   0.27260   0.28758   0.29306   0.30354
 Alpha virt. eigenvalues --    0.37059   0.41081   0.42554   0.45646   0.47340

 Mulliken charges:
               1
     1  C    0.357358
     2  N   -0.853482
     3  C   -0.207465
     4  C   -0.224893
     5  C   -0.162924
     6  H    0.146620
     7  C   -0.156897
     8  C   -0.175282
     9  H    0.150569
    10  H    0.148070
    11  H    0.336447
    12  H    0.341637
    13  H    0.145992
    14  H    0.154252
 Sum of Mulliken charges =  -0.00000

 Dipole moment (field-independent basis, Debye):
    X=              1.8501    Y=              0.1079    Z=             -0.0180  Tot=              1.8533
 Quadrupole moment (field-independent basis, Debye-Ang):
   XX=            -31.5174   YY=            -36.0874   ZZ=            -45.8829
   XY=              0.2083   XZ=             -0.0089   YZ=              0.1518

 Normal termination of Gaussian 16 at Fri Sep 22 11:11:42 2023.
