 Gaussian 16, Revision A.03,
 Gaussian 16:  ES64L-G16RevA.03 25-Dec-2016

 ----------------
 # 6-31g(d) wb97x
 ----------------

 -----------------------
 tmpdir/M3_conf_1_73.gjf
 -----------------------
 Symbolic Z-matrix:
 Charge =  0 Multiplicity = 1

                         Standard orientation:
 ---------------------------------------------------------------------
 Center     Atomic      Atomic             Coordinates (Angstroms)
 Number     Number       Type             X           Y           Z
 ---------------------------------------------------------------------
      1          6           0        2.605700   -0.218622   -0.002739
      2          7           0        1.430739   -0.878639   -0.247534
      3          6           0        0.112334   -0.383010   -0.118339
      4          6           0       -0.184373    0.975803   -0.220834
      5          6           0       -0.904605   -1.315192    0.074164
      6          1           0        0.599396    1.697882   -0.379925
      7          6           0       -1.510947    1.401413   -0.116274
      8          1           0       -0.673501   -2.375150    0.156608
      9          6           0       -2.217679   -0.875671    0.170144
     10          6           0       -2.552058    0.469865    0.082939
     11          1           0       -3.011747   -1.603812    0.321823
     12          1           0        3.504327   -0.813746   -0.148952
     13          8           0        2.672007    0.943585    0.367994
     14          1           0        1.501552   -1.879091   -0.357806
     15          1           0       -1.808431    2.460487   -0.183281
     16          1           0       -3.593055    0.787703    0.165945
 ---------------------------------------------------------------------

 SCF Done:  E(RwB97X) =  -400.831243108     A.U. after   16 cycles

 The electronic state is 1-A.
 Alpha  occ. eigenvalues --  -19.19264 -14.45864 -10.38118 -10.32463 -10.28022
 Alpha  occ. eigenvalues --  -10.27990 -10.27809 -10.27339 -10.27125  -1.16825
 Alpha  occ. eigenvalues --   -1.07432  -0.98128  -0.87857  -0.87698  -0.76961
 Alpha  occ. eigenvalues --   -0.74169  -0.69585  -0.66538  -0.62929  -0.59655
 Alpha  occ. eigenvalues --   -0.55880  -0.54543  -0.53620  -0.52816  -0.51998
 Alpha  occ. eigenvalues --   -0.48118  -0.46715  -0.44517  -0.40674  -0.36339
 Alpha  occ. eigenvalues --   -0.34367  -0.31225
 Alpha virt. eigenvalues --    0.06884   0.08185   0.13526   0.16626   0.18951
 Alpha virt. eigenvalues --    0.23593   0.24552   0.25549   0.27322   0.28911
 Alpha virt. eigenvalues --    0.29636   0.32974   0.38035   0.39466   0.40098

 Mulliken charges:
               1
     1  C    0.339196
     2  N   -0.667539
     3  C    0.320057
     4  C   -0.173944
     5  C   -0.213785
     6  H    0.202489
     7  C   -0.175111
     8  H    0.154405
     9  C   -0.163098
    10  C   -0.159590
    11  H    0.159300
    12  H    0.144861
    13  O   -0.443461
    14  H    0.345442
    15  H    0.167173
    16  H    0.163606
 Sum of Mulliken charges =  -0.00000

 Dipole moment (field-independent basis, Debye):
    X=             -0.9116    Y=             -3.1788    Z=             -0.8323  Tot=              3.4101
 Quadrupole moment (field-independent basis, Debye-Ang):
   XX=            -49.0594   YY=            -45.4735   ZZ=            -55.2336
   XY=             -8.6684   XZ=             -3.0518   YZ=             -1.1069

 Normal termination of Gaussian 16 at Fri Sep 22 11:13:24 2023.
