 Gaussian 16, Revision A.03,
 Gaussian 16:  ES64L-G16RevA.03 25-Dec-2016

 ----------------
 # 6-31g(d) wb97x
 ----------------

 -----------------------
 tmpdir/M3_conf_0_54.gjf
 -----------------------
 Symbolic Z-matrix:
 Charge =  0 Multiplicity = 1

                         Standard orientation:
 ---------------------------------------------------------------------
 Center     Atomic      Atomic             Coordinates (Angstroms)
 Number     Number       Type             X           Y           Z
 ---------------------------------------------------------------------
      1          6           0        1.257883   -0.208629    0.020869
      2          7           0        0.000926    0.507843   -0.157765
      3          6           0       -1.246524   -0.213558    0.016272
      4          1           0        2.110187    0.455076   -0.192424
      5          1           0        1.278667   -1.064846   -0.662199
      6          1           0        1.349411   -0.595139    1.054370
      7          1           0       -0.023034    1.324485    0.452404
      8          1           0       -1.290810   -0.730934    0.995064
      9          1           0       -2.059244    0.525477    0.020004
     10          1           0       -1.439817   -0.935903   -0.785709
 ---------------------------------------------------------------------

 SCF Done:  E(RwB97X) =  -135.118745606     A.U. after   13 cycles

 The electronic state is 1-A.
 Alpha  occ. eigenvalues --  -14.38555 -10.28133 -10.28075  -1.01698  -0.82549
 Alpha  occ. eigenvalues --   -0.73872  -0.59246  -0.54598  -0.53688  -0.49190
 Alpha  occ. eigenvalues --   -0.46720  -0.45839  -0.30542
 Alpha virt. eigenvalues --    0.18017   0.23544   0.24844   0.25392   0.26937
 Alpha virt. eigenvalues --    0.28297   0.29043   0.31452   0.37024   0.61115
 Alpha virt. eigenvalues --    0.65230   0.68615   0.69745   0.70595   0.84793

 Mulliken charges:
               1
     1  C   -0.319792
     2  N   -0.556829
     3  C   -0.321642
     4  H    0.164662
     5  H    0.161348
     6  H    0.125039
     7  H    0.302144
     8  H    0.122849
     9  H    0.159956
    10  H    0.162265
 Sum of Mulliken charges =  -0.00000

 Dipole moment (field-independent basis, Debye):
    X=             -0.0159    Y=             -0.0610    Z=              0.9997  Tot=              1.0017
 Quadrupole moment (field-independent basis, Debye-Ang):
   XX=            -19.3160   YY=            -19.9101   ZZ=            -21.6767
   XY=             -0.0218   XZ=             -0.0625   YZ=              2.0007

 Normal termination of Gaussian 16 at Fri Sep 22 11:11:01 2023.
