 Gaussian 16, Revision A.03,
 Gaussian 16:  ES64L-G16RevA.03 25-Dec-2016

 ----------------
 # 6-31g(d) wb97x
 ----------------

 -----------------------
 tmpdir/M3_conf_2_45.gjf
 -----------------------
 Symbolic Z-matrix:
 Charge =  0 Multiplicity = 1

                         Standard orientation:
 ---------------------------------------------------------------------
 Center     Atomic      Atomic             Coordinates (Angstroms)
 Number     Number       Type             X           Y           Z
 ---------------------------------------------------------------------
      1          6           0       -0.761793    0.001159    0.004874
      2          6           0        0.759378   -0.000019   -0.004515
      3          1           0        1.149578   -0.820552    0.607527
      4          1           0       -1.165062    0.879654   -0.604532
      5          1           0       -1.130366   -0.932517   -0.436399
      6          1           0       -1.115698    0.041264    1.054805
      7          1           0        1.115166   -0.161745   -1.040443
      8          1           0        1.160871    0.987057    0.416887
 ---------------------------------------------------------------------

 SCF Done:  E(RwB97X) =  -79.7973207546     A.U. after   12 cycles

 The electronic state is 1-A.
 Alpha  occ. eigenvalues --  -10.26106 -10.26078  -0.87861  -0.72482  -0.54384
 Alpha  occ. eigenvalues --   -0.54006  -0.46125  -0.43949  -0.43681
 Alpha virt. eigenvalues --    0.19262   0.25165   0.25214   0.25848   0.28160
 Alpha virt. eigenvalues --    0.28398   0.33687   0.61366   0.65994   0.66154
 Alpha virt. eigenvalues --    0.73898   0.74888   0.78887   0.97439   0.98835

 Mulliken charges:
               1
     1  C   -0.457559
     2  C   -0.458486
     3  H    0.157407
     4  H    0.147416
     5  H    0.156848
     6  H    0.154540
     7  H    0.154394
     8  H    0.145439
 Sum of Mulliken charges =  -0.00000

 Dipole moment (field-independent basis, Debye):
    X=              0.0016    Y=             -0.0854    Z=              0.0050  Tot=              0.0856
 Quadrupole moment (field-independent basis, Debye-Ang):
   XX=            -15.6859   YY=            -14.6932   ZZ=            -14.6679
   XY=             -0.0232   XZ=              0.0611   YZ=             -0.0016

 Normal termination of Gaussian 16 at Fri Sep 22 11:14:33 2023.
