 Gaussian 16, Revision A.03,
 Gaussian 16:  ES64L-G16RevA.03 25-Dec-2016

 ----------------
 # 6-31g(d) wb97x
 ----------------

 -----------------------
 tmpdir/M3_conf_2_85.gjf
 -----------------------
 Symbolic Z-matrix:
 Charge =  0 Multiplicity = 1

                         Standard orientation:
 ---------------------------------------------------------------------
 Center     Atomic      Atomic             Coordinates (Angstroms)
 Number     Number       Type             X           Y           Z
 ---------------------------------------------------------------------
      1          6           0        0.915610   -0.059394    0.000345
      2          7           0        2.327101   -0.041851    0.000711
      3          6           0        0.169523   -1.240598   -0.000151
      4          6           0        0.273220    1.197449   -0.001045
      5          6           0       -1.223488   -1.174477    0.006709
      6          1           0        0.673410   -2.192998   -0.006138
      7          6           0       -1.115760    1.221890   -0.004225
      8          6           0       -1.872095    0.058068    0.000951
      9          1           0       -1.622385    2.184738   -0.007316
     10          1           0       -2.958820    0.110254    0.008766
     11          1           0        2.762474    0.867592    0.032788
     12          1           0        2.990764   -0.737359   -0.028788
     13          1           0        0.842892    2.128611   -0.001129
     14          1           0       -1.860099   -2.085513   -0.018660
 ---------------------------------------------------------------------

 SCF Done:  E(RwB97X) =  -287.510200286     A.U. after   14 cycles

 The electronic state is 1-A.
 Alpha  occ. eigenvalues --  -14.40476 -10.31521 -10.26890 -10.26439 -10.26074
 Alpha  occ. eigenvalues --  -10.25854 -10.25180  -1.03521  -0.95902  -0.86404
 Alpha  occ. eigenvalues --   -0.84702  -0.72342  -0.71295  -0.63703  -0.61077
 Alpha  occ. eigenvalues --   -0.58174  -0.52943  -0.52595  -0.51678  -0.48718
 Alpha  occ. eigenvalues --   -0.44882  -0.43119  -0.40302  -0.33328  -0.27895
 Alpha virt. eigenvalues --    0.09354   0.11323   0.18742   0.19753   0.22911
 Alpha virt. eigenvalues --    0.26164   0.27311   0.28585   0.29225   0.30262
 Alpha virt. eigenvalues --    0.36286   0.40941   0.42382   0.45380   0.46135

 Mulliken charges:
               1
     1  C    0.346913
     2  N   -0.857557
     3  C   -0.205179
     4  C   -0.219779
     5  C   -0.163762
     6  H    0.149328
     7  C   -0.157971
     8  C   -0.172834
     9  H    0.151831
    10  H    0.149712
    11  H    0.334610
    12  H    0.340958
    13  H    0.148236
    14  H    0.155492
 Sum of Mulliken charges =  -0.00000

 Dipole moment (field-independent basis, Debye):
    X=              1.6433    Y=              0.1118    Z=             -0.0183  Tot=              1.6472
 Quadrupole moment (field-independent basis, Debye-Ang):
   XX=            -31.7419   YY=            -35.9407   ZZ=            -45.9347
   XY=              0.2244   XZ=             -0.0090   YZ=              0.1534

 Normal termination of Gaussian 16 at Fri Sep 22 11:15:29 2023.
