 Gaussian 16, Revision A.03,
 Gaussian 16:  ES64L-G16RevA.03 25-Dec-2016

 ----------------
 # 6-31g(d) wb97x
 ----------------

 -----------------------
 tmpdir/M3_conf_0_82.gjf
 -----------------------
 Symbolic Z-matrix:
 Charge =  0 Multiplicity = 1

                         Standard orientation:
 ---------------------------------------------------------------------
 Center     Atomic      Atomic             Coordinates (Angstroms)
 Number     Number       Type             X           Y           Z
 ---------------------------------------------------------------------
      1          1           0       -0.212915   -0.054602    1.064292
      2          6           0        0.011300    0.000142   -0.004471
      3          1           0       -0.480076   -0.858853   -0.480170
      4          1           0        1.090433    0.000405   -0.168986
      5          1           0       -0.465242    0.912196   -0.388306
 ---------------------------------------------------------------------

 SCF Done:  E(RwB97X) =  -40.4990073331     A.U. after   11 cycles

 The electronic state is 1-A.
 Alpha  occ. eigenvalues --  -10.24978  -0.81721  -0.50238  -0.49104  -0.49007
 Alpha virt. eigenvalues --    0.21588   0.27291   0.27358   0.27799   0.63838
 Alpha virt. eigenvalues --    0.64054   0.64477   1.01220   1.01281   1.02441
 Alpha virt. eigenvalues --    1.06952   1.20883   1.75805   1.75883   2.34202

 Mulliken charges:
               1
     1  H    0.165698
     2  C   -0.667103
     3  H    0.165499
     4  H    0.170479
     5  H    0.165427
 Sum of Mulliken charges =  -0.00000

 Dipole moment (field-independent basis, Debye):
    X=             -0.0352    Y=             -0.0011    Z=              0.0212  Tot=              0.0411
 Quadrupole moment (field-independent basis, Debye-Ang):
   XX=             -8.1049   YY=             -8.3138   ZZ=             -8.3538
   XY=              0.0003   XZ=             -0.0084   YZ=              0.0000

 Normal termination of Gaussian 16 at Fri Sep 22 11:11:47 2023.
