 Gaussian 16, Revision A.03,
 Gaussian 16:  ES64L-G16RevA.03 25-Dec-2016

 ----------------
 # 6-31g(d) wb97x
 ----------------

 -----------------------
 tmpdir/M3_conf_1_67.gjf
 -----------------------
 Symbolic Z-matrix:
 Charge =  0 Multiplicity = 1

                         Standard orientation:
 ---------------------------------------------------------------------
 Center     Atomic      Atomic             Coordinates (Angstroms)
 Number     Number       Type             X           Y           Z
 ---------------------------------------------------------------------
      1          6           0        0.535963    0.257333    0.087633
      2          6           0        2.022402    0.468423    0.148858
      3          8           0        2.792671   -0.396225   -0.240542
      4          6           0       -0.388858    1.300382   -0.003816
      5          6           0        0.075676   -1.058781    0.094952
      6          6           0       -1.749672    1.029298   -0.073524
      7          1           0       -0.052649    2.333771   -0.062621
      8          6           0       -1.286242   -1.325315    0.041018
      9          1           0        0.803503   -1.863200    0.151846
     10          6           0       -2.213741   -0.286971   -0.047725
     11          1           0       -2.473868    1.836638   -0.144952
     12          1           0       -1.635320   -2.355890    0.067074
     13          1           0        2.329408    1.412198    0.566115
     14          1           0       -3.285614   -0.499933   -0.137501
 ---------------------------------------------------------------------

 SCF Done:  E(RwB97X) =  -345.471670855     A.U. after   15 cycles

 The electronic state is 1-A.
 Alpha  occ. eigenvalues --  -19.22003 -10.36558 -10.29236 -10.29039 -10.28839
 Alpha  occ. eigenvalues --  -10.28641 -10.28439 -10.28385  -1.16918  -1.00029
 Alpha  occ. eigenvalues --   -0.89856  -0.88562  -0.77654  -0.73744  -0.69819
 Alpha  occ. eigenvalues --   -0.64365  -0.59475  -0.57144  -0.54872  -0.54309
 Alpha  occ. eigenvalues --   -0.53620  -0.51161  -0.47484  -0.46793  -0.44940
 Alpha  occ. eigenvalues --   -0.36372  -0.35394  -0.34947
 Alpha virt. eigenvalues --    0.02460   0.07465   0.12431   0.18363   0.22002
 Alpha virt. eigenvalues --    0.24710   0.25200   0.26137   0.28125   0.28620
 Alpha virt. eigenvalues --    0.35218   0.36019   0.39415   0.40285   0.43186

 Mulliken charges:
               1
     1  C    0.020909
     2  C    0.199793
     3  O   -0.391285
     4  C   -0.190509
     5  C   -0.169574
     6  C   -0.165143
     7  H    0.166871
     8  C   -0.165476
     9  H    0.191726
    10  C   -0.149116
    11  H    0.167946
    12  H    0.168708
    13  H    0.142666
    14  H    0.172484
 Sum of Mulliken charges =  -0.00000

 Dipole moment (field-independent basis, Debye):
    X=             -2.5549    Y=              1.3187    Z=              0.6596  Tot=              2.9498
 Quadrupole moment (field-independent basis, Debye-Ang):
   XX=            -48.6300   YY=            -39.9546   ZZ=            -48.1797
   XY=              3.8403   XZ=              2.4696   YZ=             -0.4168

 Normal termination of Gaussian 16 at Fri Sep 22 11:13:29 2023.
