 Gaussian 16, Revision A.03,
 Gaussian 16:  ES64L-G16RevA.03 25-Dec-2016

 ----------------
 # 6-31g(d) wb97x
 ----------------

 -----------------------
 tmpdir/M3_conf_0_42.gjf
 -----------------------
 Symbolic Z-matrix:
 Charge =  0 Multiplicity = 1

                         Standard orientation:
 ---------------------------------------------------------------------
 Center     Atomic      Atomic             Coordinates (Angstroms)
 Number     Number       Type             X           Y           Z
 ---------------------------------------------------------------------
      1          6           0       -0.001346    0.002442   -0.000738
      2          1           0       -0.183954   -0.458534    0.976917
      3          1           0       -0.354825    1.045203    0.010351
      4          1           0       -0.574927   -0.566440   -0.757882
      5          1           0        1.121784   -0.034879   -0.224956
 ---------------------------------------------------------------------

 SCF Done:  E(RwB97X) =  -40.4975930660     A.U. after   11 cycles

 The electronic state is 1-A.
 Alpha  occ. eigenvalues --  -10.25729  -0.81222  -0.49511  -0.49174  -0.48764
 Alpha virt. eigenvalues --    0.21070   0.26340   0.27106   0.27421   0.64010
 Alpha virt. eigenvalues --    0.64262   0.65631   0.98591   1.00765   1.01417
 Alpha virt. eigenvalues --    1.04961   1.20194   1.76040   1.76248   2.29680

 Mulliken charges:
               1
     1  C   -0.658408
     2  H    0.168074
     3  H    0.167866
     4  H    0.165733
     5  H    0.156735
 Sum of Mulliken charges =  -0.00000

 Dipole moment (field-independent basis, Debye):
    X=             -0.0392    Y=             -0.0067    Z=              0.0219  Tot=              0.0454
 Quadrupole moment (field-independent basis, Debye-Ang):
   XX=             -8.2292   YY=             -8.3008   ZZ=             -8.3761
   XY=             -0.0017   XZ=              0.0147   YZ=             -0.0093

 Normal termination of Gaussian 16 at Fri Sep 22 11:10:48 2023.
