 Gaussian 16, Revision A.03,
 Gaussian 16:  ES64L-G16RevA.03 25-Dec-2016

 ----------------
 # 6-31g(d) wb97x
 ----------------

 -----------------------
 tmpdir/M3_conf_0_12.gjf
 -----------------------
 Symbolic Z-matrix:
 Charge =  0 Multiplicity = 1

                         Standard orientation:
 ---------------------------------------------------------------------
 Center     Atomic      Atomic             Coordinates (Angstroms)
 Number     Number       Type             X           Y           Z
 ---------------------------------------------------------------------
      1          6           0       -0.707258    0.000568    0.011157
      2          7           0        0.745698    0.001985   -0.113569
      3          1           0       -1.136360    0.896709   -0.464579
      4          1           0       -1.102374   -0.897620   -0.478410
      5          1           0       -1.021793   -0.027253    1.073732
      6          1           0        1.153251   -0.834026    0.289882
      7          1           0        1.130937    0.844884    0.307418
 ---------------------------------------------------------------------

 SCF Done:  E(RwB97X) =  -95.8215807612     A.U. after   13 cycles

 The electronic state is 1-A.
 Alpha  occ. eigenvalues --  -14.37975 -10.28088  -0.99374  -0.77407  -0.60137
 Alpha  occ. eigenvalues --   -0.53504  -0.50488  -0.47072  -0.32197
 Alpha virt. eigenvalues --    0.18456   0.24203   0.25527   0.27551   0.29044
 Alpha virt. eigenvalues --    0.34075   0.66013   0.67708   0.69723   0.84844
 Alpha virt. eigenvalues --    0.87359   0.89531   0.97727   1.02572   1.04774

 Mulliken charges:
               1
     1  C   -0.328583
     2  N   -0.742678
     3  H    0.162808
     4  H    0.162668
     5  H    0.128042
     6  H    0.310026
     7  H    0.307716
 Sum of Mulliken charges =   0.00000

 Dipole moment (field-independent basis, Debye):
    X=             -0.1710    Y=             -0.0149    Z=              1.3615  Tot=              1.3722
 Quadrupole moment (field-independent basis, Debye-Ang):
   XX=            -13.6080   YY=            -12.1347   ZZ=            -15.2673
   XY=             -0.0736   XZ=              2.0584   YZ=              0.0217

 Normal termination of Gaussian 16 at Fri Sep 22 11:10:29 2023.
