 Gaussian 16, Revision A.03,
 Gaussian 16:  ES64L-G16RevA.03 25-Dec-2016

 ----------------
 # 6-31g(d) wb97x
 ----------------

 -----------------------
 tmpdir/M3_conf_1_63.gjf
 -----------------------
 Symbolic Z-matrix:
 Charge =  0 Multiplicity = 1

                         Standard orientation:
 ---------------------------------------------------------------------
 Center     Atomic      Atomic             Coordinates (Angstroms)
 Number     Number       Type             X           Y           Z
 ---------------------------------------------------------------------
      1          1           0        2.737122    0.104856    1.057056
      2          6           0        2.419461   -0.010602    0.011846
      3          6           0        0.905216   -0.004109   -0.024557
      4          6           0        0.202761    1.201866   -0.011852
      5          6           0        0.187465   -1.200392   -0.018321
      6          1           0        0.763965    2.132662   -0.014531
      7          6           0       -1.186473    1.210537   -0.001118
      8          1           0        0.723186   -2.147702   -0.033383
      9          6           0       -1.201078   -1.195742    0.008317
     10          1           0       -1.708303    2.164424    0.045696
     11          6           0       -1.900950    0.010176    0.002619
     12          1           0       -1.765551   -2.123692    0.025790
     13          1           0        2.885976    0.841764   -0.586053
     14          1           0        2.792335   -0.999788   -0.320021
     15          1           0       -2.987141   -0.042925    0.023841
 ---------------------------------------------------------------------

 SCF Done:  E(RwB97X) =  -271.484296670     A.U. after   13 cycles

 The electronic state is 1-A.
 Alpha  occ. eigenvalues --  -10.27771 -10.27105 -10.27019 -10.26821 -10.26727
 Alpha  occ. eigenvalues --  -10.26583 -10.26558  -0.98387  -0.89534  -0.86792
 Alpha  occ. eigenvalues --   -0.80339  -0.71985  -0.69575  -0.62011  -0.56304
 Alpha  occ. eigenvalues --   -0.55906  -0.52373  -0.52066  -0.50593  -0.48479
 Alpha  occ. eigenvalues --   -0.45978  -0.43514  -0.43044  -0.33698  -0.32504
 Alpha virt. eigenvalues --    0.08900   0.09059   0.18751   0.21373   0.23241
 Alpha virt. eigenvalues --    0.24679   0.26175   0.27280   0.28692   0.29498
 Alpha virt. eigenvalues --    0.30825   0.33589   0.40706   0.41946   0.43248

 Mulliken charges:
               1
     1  H    0.179578
     2  C   -0.537075
     3  C    0.130322
     4  C   -0.193966
     5  C   -0.198613
     6  H    0.150790
     7  C   -0.160301
     8  H    0.148842
     9  C   -0.156532
    10  H    0.157616
    11  C   -0.165058
    12  H    0.157510
    13  H    0.163117
    14  H    0.165658
    15  H    0.158114
 Sum of Mulliken charges =  -0.00000

 Dipole moment (field-independent basis, Debye):
    X=              0.2832    Y=             -0.0111    Z=              0.1345  Tot=              0.3137
 Quadrupole moment (field-independent basis, Debye-Ang):
   XX=            -37.7105   YY=            -37.8598   ZZ=            -45.1320
   XY=              0.2564   XZ=              0.0294   YZ=              0.0050

 Normal termination of Gaussian 16 at Fri Sep 22 11:13:43 2023.
