 Gaussian 16, Revision A.03,
 Gaussian 16:  ES64L-G16RevA.03 25-Dec-2016

 ----------------
 # 6-31g(d) wb97x
 ----------------

 -----------------------
 tmpdir/M3_conf_0_16.gjf
 -----------------------
 Symbolic Z-matrix:
 Charge =  0 Multiplicity = 1

                         Standard orientation:
 ---------------------------------------------------------------------
 Center     Atomic      Atomic             Coordinates (Angstroms)
 Number     Number       Type             X           Y           Z
 ---------------------------------------------------------------------
      1          1           0        0.138226   -0.459220    0.983671
      2          6           0        0.000325    0.002293   -0.001479
      3          1           0        0.610709   -0.566441   -0.731374
      4          1           0        0.358614    1.043590    0.027665
      5          1           0       -1.109498   -0.031687   -0.271087
 ---------------------------------------------------------------------

 SCF Done:  E(RwB97X) =  -40.4976952354     A.U. after   11 cycles

 The electronic state is 1-A.
 Alpha  occ. eigenvalues --  -10.25717  -0.81228  -0.49477  -0.49203  -0.48778
 Alpha virt. eigenvalues --    0.21083   0.26419   0.27062   0.27403   0.64020
 Alpha virt. eigenvalues --    0.64267   0.65602   0.98789   1.00674   1.01369
 Alpha virt. eigenvalues --    1.04975   1.20198   1.76025   1.76271   2.29829

 Mulliken charges:
               1
     1  H    0.167785
     2  C   -0.658650
     3  H    0.165423
     4  H    0.167612
     5  H    0.157830
 Sum of Mulliken charges =   0.00000

 Dipole moment (field-independent basis, Debye):
    X=              0.0372    Y=             -0.0060    Z=              0.0262  Tot=              0.0459
 Quadrupole moment (field-independent basis, Debye-Ang):
   XX=             -8.2133   YY=             -8.3076   ZZ=             -8.3833
   XY=              0.0032   XZ=             -0.0156   YZ=             -0.0092

 Normal termination of Gaussian 16 at Fri Sep 22 11:10:27 2023.
