 Gaussian 16, Revision A.03,
 Gaussian 16:  ES64L-G16RevA.03 25-Dec-2016

 ----------------
 # 6-31g(d) wb97x
 ----------------

 -----------------------
 tmpdir/M3_conf_2_82.gjf
 -----------------------
 Symbolic Z-matrix:
 Charge =  0 Multiplicity = 1

                         Standard orientation:
 ---------------------------------------------------------------------
 Center     Atomic      Atomic             Coordinates (Angstroms)
 Number     Number       Type             X           Y           Z
 ---------------------------------------------------------------------
      1          1           0       -0.240432   -0.210586    1.037444
      2          6           0        0.011874    0.000728   -0.005251
      3          1           0       -0.517015   -0.748242   -0.609337
      4          1           0        1.093174   -0.032728   -0.151075
      5          1           0       -0.406974    0.987185   -0.245528
 ---------------------------------------------------------------------

 SCF Done:  E(RwB97X) =  -40.4989155078     A.U. after   11 cycles

 The electronic state is 1-A.
 Alpha  occ. eigenvalues --  -10.24978  -0.81724  -0.50277  -0.49172  -0.48896
 Alpha virt. eigenvalues --    0.21584   0.27280   0.27351   0.27810   0.63793
 Alpha virt. eigenvalues --    0.64084   0.64499   1.01139   1.01306   1.02460
 Alpha virt. eigenvalues --    1.06996   1.20905   1.75800   1.75897   2.34114

 Mulliken charges:
               1
     1  H    0.165460
     2  C   -0.667218
     3  H    0.165534
     4  H    0.170657
     5  H    0.165567
 Sum of Mulliken charges =  -0.00000

 Dipole moment (field-independent basis, Debye):
    X=             -0.0374    Y=             -0.0047    Z=              0.0244  Tot=              0.0449
 Quadrupole moment (field-independent basis, Debye-Ang):
   XX=             -8.0966   YY=             -8.3021   ZZ=             -8.3743
   XY=             -0.0014   XZ=             -0.0075   YZ=             -0.0002

 Normal termination of Gaussian 16 at Fri Sep 22 11:15:29 2023.
