 Gaussian 16, Revision A.03,
 Gaussian 16:  ES64L-G16RevA.03 25-Dec-2016

 ----------------
 # 6-31g(d) wb97x
 ----------------

 -----------------------
 tmpdir/M3_conf_1_89.gjf
 -----------------------
 Symbolic Z-matrix:
 Charge =  0 Multiplicity = 1

                         Standard orientation:
 ---------------------------------------------------------------------
 Center     Atomic      Atomic             Coordinates (Angstroms)
 Number     Number       Type             X           Y           Z
 ---------------------------------------------------------------------
      1          1           0       -2.606085    0.903839   -0.003421
      2          7           0       -2.230585   -0.032424    0.005973
      3          6           0       -0.857290   -0.060701    0.000784
      4          7           0       -0.201057   -1.218220   -0.002945
      5          7           0       -0.307276    1.169521   -0.007302
      6          6           0        1.137858   -1.161852   -0.005422
      7          6           0        1.017464    1.200358   -0.002144
      8          6           0        1.810121    0.058299    0.004610
      9          1           0        1.471400    2.190661    0.002161
     10          1           0        2.890996    0.125263    0.039090
     11          1           0       -2.885774   -0.763467    0.012359
     12          1           0        1.652967   -2.105063   -0.007238
 ---------------------------------------------------------------------

 SCF Done:  E(RwB97X) =  -319.605841910     A.U. after   15 cycles

 The electronic state is 1-A.
 Alpha  occ. eigenvalues --  -14.41835 -14.40166 -14.39987 -10.37347 -10.32032
 Alpha  occ. eigenvalues --  -10.31848 -10.27107  -1.12717  -1.02546  -1.00985
 Alpha  occ. eigenvalues --   -0.89693  -0.77979  -0.76216  -0.66406  -0.64617
 Alpha  occ. eigenvalues --   -0.58696  -0.57928  -0.54882  -0.52686  -0.51357
 Alpha  occ. eigenvalues --   -0.42849  -0.41099  -0.40527  -0.34252  -0.31318
 Alpha virt. eigenvalues --    0.05742   0.09423   0.20141   0.21136   0.24314
 Alpha virt. eigenvalues --    0.26013   0.26964   0.27680   0.33567   0.35454
 Alpha virt. eigenvalues --    0.42661   0.43992   0.46438   0.49634   0.56577

 Mulliken charges:
               1
     1  H    0.357311
     2  N   -0.799403
     3  C    0.618701
     4  N   -0.456365
     5  N   -0.459980
     6  C    0.042527
     7  C    0.047277
     8  C   -0.230741
     9  H    0.174776
    10  H    0.169424
    11  H    0.356748
    12  H    0.179725
 Sum of Mulliken charges =  -0.00000

 Dipole moment (field-independent basis, Debye):
    X=              0.1132    Y=              0.1594    Z=              0.0324  Tot=              0.1981
 Quadrupole moment (field-independent basis, Debye-Ang):
   XX=            -28.0309   YY=            -40.8699   ZZ=            -42.2895
   XY=              0.1186   XZ=              0.0659   YZ=              0.0035

 Normal termination of Gaussian 16 at Fri Sep 22 11:13:57 2023.
