 Gaussian 16, Revision A.03,
 Gaussian 16:  ES64L-G16RevA.03 25-Dec-2016

 ----------------
 # 6-31g(d) wb97x
 ----------------

 -----------------------
 tmpdir/M3_conf_0_34.gjf
 -----------------------
 Symbolic Z-matrix:
 Charge =  0 Multiplicity = 1

                         Standard orientation:
 ---------------------------------------------------------------------
 Center     Atomic      Atomic             Coordinates (Angstroms)
 Number     Number       Type             X           Y           Z
 ---------------------------------------------------------------------
      1          6           0       -0.000669    0.002349   -0.001890
      2          1           0       -0.576931   -0.521305   -0.782695
      3          1           0        1.117218    0.002469   -0.238706
      4          1           0       -0.160507   -0.528869    0.943924
      5          1           0       -0.375763    1.033614    0.088819
 ---------------------------------------------------------------------

 SCF Done:  E(RwB97X) =  -40.4977832001     A.U. after   11 cycles

 The electronic state is 1-A.
 Alpha  occ. eigenvalues --  -10.25648  -0.81276  -0.49480  -0.49287  -0.48773
 Alpha virt. eigenvalues --    0.21122   0.26429   0.27198   0.27411   0.63956
 Alpha virt. eigenvalues --    0.64214   0.65577   0.98793   1.00982   1.01396
 Alpha virt. eigenvalues --    1.05213   1.20248   1.75993   1.76244   2.29928

 Mulliken charges:
               1
     1  C   -0.659373
     2  H    0.166719
     3  H    0.157596
     4  H    0.167515
     5  H    0.167544
 Sum of Mulliken charges =   0.00000

 Dipole moment (field-independent basis, Debye):
    X=             -0.0400    Y=             -0.0107    Z=              0.0225  Tot=              0.0471
 Quadrupole moment (field-independent basis, Debye-Ang):
   XX=             -8.2097   YY=             -8.2990   ZZ=             -8.3828
   XY=             -0.0020   XZ=              0.0185   YZ=             -0.0030

 Normal termination of Gaussian 16 at Fri Sep 22 11:10:42 2023.
