 Gaussian 16, Revision A.03,
 Gaussian 16:  ES64L-G16RevA.03 25-Dec-2016

 ----------------
 # 6-31g(d) wb97x
 ----------------

 -----------------------
 tmpdir/M3_conf_0_44.gjf
 -----------------------
 Symbolic Z-matrix:
 Charge =  0 Multiplicity = 1

                         Standard orientation:
 ---------------------------------------------------------------------
 Center     Atomic      Atomic             Coordinates (Angstroms)
 Number     Number       Type             X           Y           Z
 ---------------------------------------------------------------------
      1          6           0        0.711843   -0.000062    0.011012
      2          7           0       -0.748604    0.001821   -0.112949
      3          1           0        1.138025    0.892269   -0.473276
      4          1           0        1.107593   -0.902625   -0.467403
      5          1           0        1.018474   -0.016266    1.074781
      6          1           0       -1.131417    0.849896    0.304207
      7          1           0       -1.163501   -0.835649    0.286264
 ---------------------------------------------------------------------

 SCF Done:  E(RwB97X) =  -95.8212868102     A.U. after   13 cycles

 The electronic state is 1-A.
 Alpha  occ. eigenvalues --  -14.37997 -10.28122  -0.99098  -0.77431  -0.60009
 Alpha  occ. eigenvalues --   -0.53337  -0.50459  -0.47169  -0.32127
 Alpha virt. eigenvalues --    0.18423   0.24146   0.25553   0.27571   0.29045
 Alpha virt. eigenvalues --    0.33779   0.65963   0.67585   0.69641   0.84766
 Alpha virt. eigenvalues --    0.87623   0.89405   0.97770   1.02448   1.04660

 Mulliken charges:
               1
     1  C   -0.328096
     2  N   -0.745619
     3  H    0.163367
     4  H    0.163259
     5  H    0.129446
     6  H    0.307610
     7  H    0.310032
 Sum of Mulliken charges =   0.00000

 Dipole moment (field-independent basis, Debye):
    X=              0.1829    Y=             -0.0155    Z=              1.3542  Tot=              1.3666
 Quadrupole moment (field-independent basis, Debye-Ang):
   XX=            -13.5786   YY=            -12.1165   ZZ=            -15.2780
   XY=              0.0768   XZ=             -2.0521   YZ=              0.0219

 Normal termination of Gaussian 16 at Fri Sep 22 11:10:47 2023.
