 Gaussian 16, Revision A.03,
 Gaussian 16:  ES64L-G16RevA.03 25-Dec-2016

 ----------------
 # 6-31g(d) wb97x
 ----------------

 -----------------------
 tmpdir/M3_conf_0_81.gjf
 -----------------------
 Symbolic Z-matrix:
 Charge =  0 Multiplicity = 1

                         Standard orientation:
 ---------------------------------------------------------------------
 Center     Atomic      Atomic             Coordinates (Angstroms)
 Number     Number       Type             X           Y           Z
 ---------------------------------------------------------------------
      1          6           0        0.911095   -0.006544   -0.000091
      2          6           0        2.419042    0.006104    0.000629
      3          1           0        2.838243   -0.482975    0.890201
      4          6           0        0.197047    1.185100   -0.003567
      5          6           0        0.184337   -1.216572    0.000613
      6          6           0       -1.190693    1.211265    0.000806
      7          1           0        0.746130    2.124371   -0.006250
      8          6           0       -1.212731   -1.208289   -0.000706
      9          6           0       -1.893655    0.008765    0.005958
     10          1           0       -1.721302    2.161075    0.008402
     11          1           0       -1.754395   -2.139727   -0.007159
     12          1           0        2.793182    1.033479   -0.006520
     13          1           0        2.836082   -0.497538   -0.881432
     14          1           0        0.778941   -2.144516    0.001019
     15          1           0       -3.003529    0.066854   -0.020117
 ---------------------------------------------------------------------

 SCF Done:  E(RwB97X) =  -271.485397521     A.U. after   13 cycles

 The electronic state is 1-A.
 Alpha  occ. eigenvalues --  -10.27773 -10.27113 -10.27040 -10.27018 -10.26820
 Alpha  occ. eigenvalues --  -10.26470 -10.26449  -0.98294  -0.89627  -0.86729
 Alpha  occ. eigenvalues --   -0.80524  -0.72018  -0.69573  -0.61882  -0.56226
 Alpha  occ. eigenvalues --   -0.55988  -0.52690  -0.52108  -0.50561  -0.48358
 Alpha  occ. eigenvalues --   -0.46086  -0.43532  -0.43010  -0.33686  -0.32544
 Alpha virt. eigenvalues --    0.08560   0.09292   0.18686   0.21766   0.23496
 Alpha virt. eigenvalues --    0.25117   0.25655   0.27243   0.28645   0.30073
 Alpha virt. eigenvalues --    0.30738   0.33771   0.40941   0.41609   0.42261

 Mulliken charges:
               1
     1  C    0.134479
     2  C   -0.545149
     3  H    0.174521
     4  C   -0.203444
     5  C   -0.198970
     6  C   -0.150914
     7  H    0.146488
     8  C   -0.157723
     9  C   -0.168982
    10  H    0.160077
    11  H    0.161196
    12  H    0.167444
    13  H    0.174332
    14  H    0.151469
    15  H    0.155176
 Sum of Mulliken charges =  -0.00000

 Dipole moment (field-independent basis, Debye):
    X=              0.3310    Y=             -0.0040    Z=             -0.0144  Tot=              0.3313
 Quadrupole moment (field-independent basis, Debye-Ang):
   XX=            -37.4392   YY=            -37.9514   ZZ=            -45.0941
   XY=             -0.2403   XZ=              0.0583   YZ=              0.0199

 Normal termination of Gaussian 16 at Fri Sep 22 11:11:45 2023.
