 Gaussian 16, Revision A.03,
 Gaussian 16:  ES64L-G16RevA.03 25-Dec-2016

 ----------------
 # 6-31g(d) wb97x
 ----------------

 -----------------------
 tmpdir/M3_conf_2_74.gjf
 -----------------------
 Symbolic Z-matrix:
 Charge =  0 Multiplicity = 1

                         Standard orientation:
 ---------------------------------------------------------------------
 Center     Atomic      Atomic             Coordinates (Angstroms)
 Number     Number       Type             X           Y           Z
 ---------------------------------------------------------------------
      1          1           0       -2.722450    0.876241   -0.210513
      2          7           0       -2.331907   -0.034577   -0.020866
      3          6           0       -0.917901   -0.048195    0.009739
      4          6           0       -0.185412   -1.234833   -0.006428
      5          6           0       -0.267069    1.183301    0.012260
      6          1           0       -0.686549   -2.188628   -0.018694
      7          6           0        1.210722   -1.183046   -0.007120
      8          1           0       -0.837952    2.109366    0.027314
      9          6           0        1.120519    1.216600    0.005709
     10          6           0        1.884919    0.056628   -0.000457
     11          1           0        1.628729    2.178607    0.009008
     12          1           0       -2.952838   -0.704242    0.272154
     13          1           0        1.844659   -2.084547   -0.013995
     14          1           0        2.975090    0.112504   -0.001431
 ---------------------------------------------------------------------

 SCF Done:  E(RwB97X) =  -287.510774106     A.U. after   14 cycles

 The electronic state is 1-A.
 Alpha  occ. eigenvalues --  -14.40229 -10.31054 -10.27041 -10.26482 -10.25966
 Alpha  occ. eigenvalues --  -10.25868 -10.25586  -1.03527  -0.95832  -0.86429
 Alpha  occ. eigenvalues --   -0.84669  -0.72449  -0.71065  -0.63707  -0.61503
 Alpha  occ. eigenvalues --   -0.58049  -0.53117  -0.52879  -0.51719  -0.48429
 Alpha  occ. eigenvalues --   -0.45095  -0.43123  -0.39830  -0.33332  -0.28206
 Alpha virt. eigenvalues --    0.09297   0.10988   0.18784   0.19977   0.23136
 Alpha virt. eigenvalues --    0.26107   0.27160   0.28417   0.29501   0.30673
 Alpha virt. eigenvalues --    0.36294   0.40692   0.42547   0.45513   0.45888

 Mulliken charges:
               1
     1  H    0.335359
     2  N   -0.850564
     3  C    0.336762
     4  C   -0.201827
     5  C   -0.217603
     6  H    0.150805
     7  C   -0.168129
     8  H    0.146131
     9  C   -0.158965
    10  C   -0.173404
    11  H    0.151749
    12  H    0.341364
    13  H    0.155696
    14  H    0.152626
 Sum of Mulliken charges =  -0.00000

 Dipole moment (field-independent basis, Debye):
    X=             -1.4455    Y=              0.1568    Z=              0.2639  Tot=              1.4778
 Quadrupole moment (field-independent basis, Debye-Ang):
   XX=            -32.4096   YY=            -36.0578   ZZ=            -45.6406
   XY=             -0.3699   XZ=             -0.8839   YZ=             -0.8065

 Normal termination of Gaussian 16 at Fri Sep 22 11:15:32 2023.
