 Gaussian 16, Revision A.03,
 Gaussian 16:  ES64L-G16RevA.03 25-Dec-2016

 ----------------
 # 6-31g(d) wb97x
 ----------------

 -----------------------
 tmpdir/M3_conf_2_76.gjf
 -----------------------
 Symbolic Z-matrix:
 Charge =  0 Multiplicity = 1

                         Standard orientation:
 ---------------------------------------------------------------------
 Center     Atomic      Atomic             Coordinates (Angstroms)
 Number     Number       Type             X           Y           Z
 ---------------------------------------------------------------------
      1          6           0       -0.011184    0.000183   -0.004284
      2          1           0        0.207588   -0.042281    1.067084
      3          1           0       -1.089446   -0.000508   -0.174420
      4          1           0        0.467963    0.906349   -0.397849
      5          1           0        0.481001   -0.864660   -0.469113
 ---------------------------------------------------------------------

 SCF Done:  E(RwB97X) =  -40.4990280433     A.U. after   11 cycles

 The electronic state is 1-A.
 Alpha  occ. eigenvalues --  -10.24988  -0.81713  -0.50229  -0.49091  -0.49018
 Alpha virt. eigenvalues --    0.21583   0.27284   0.27348   0.27796   0.63872
 Alpha virt. eigenvalues --    0.64044   0.64471   1.01202   1.01271   1.02435
 Alpha virt. eigenvalues --    1.06898   1.20870   1.75805   1.75892   2.34224

 Mulliken charges:
               1
     1  C   -0.666978
     2  H    0.165563
     3  H    0.170466
     4  H    0.165525
     5  H    0.165423
 Sum of Mulliken charges =   0.00000

 Dipole moment (field-independent basis, Debye):
    X=              0.0347    Y=             -0.0006    Z=              0.0194  Tot=              0.0397
 Quadrupole moment (field-independent basis, Debye-Ang):
   XX=             -8.1077   YY=             -8.3175   ZZ=             -8.3490
   XY=              0.0003   XZ=              0.0083   YZ=             -0.0004

 Normal termination of Gaussian 16 at Fri Sep 22 11:14:48 2023.
