 Gaussian 16, Revision A.03,
 Gaussian 16:  ES64L-G16RevA.03 25-Dec-2016

 ----------------
 # 6-31g(d) wb97x
 ----------------

 -----------------------
 tmpdir/M3_conf_0_20.gjf
 -----------------------
 Symbolic Z-matrix:
 Charge =  0 Multiplicity = 1

                         Standard orientation:
 ---------------------------------------------------------------------
 Center     Atomic      Atomic             Coordinates (Angstroms)
 Number     Number       Type             X           Y           Z
 ---------------------------------------------------------------------
      1          7           0       -0.744619    0.002057   -0.113604
      2          6           0        0.706325    0.000753    0.011175
      3          1           0       -1.130025    0.844402    0.308107
      4          1           0       -1.152448   -0.834153    0.289169
      5          1           0        1.101450   -0.895734   -0.481278
      6          1           0        1.020573   -0.031480    1.073918
      7          1           0        1.134834    0.898053   -0.461733
 ---------------------------------------------------------------------

 SCF Done:  E(RwB97X) =  -95.8215780074     A.U. after   13 cycles

 The electronic state is 1-A.
 Alpha  occ. eigenvalues --  -14.37964 -10.28067  -0.99426  -0.77397  -0.60163
 Alpha  occ. eigenvalues --   -0.53534  -0.50513  -0.47055  -0.32189
 Alpha virt. eigenvalues --    0.18457   0.24226   0.25517   0.27552   0.29056
 Alpha virt. eigenvalues --    0.34146   0.66031   0.67723   0.69745   0.84855
 Alpha virt. eigenvalues --    0.87337   0.89549   0.97721   1.02608   1.04786

 Mulliken charges:
               1
     1  N   -0.742284
     2  C   -0.328450
     3  H    0.307663
     4  H    0.309979
     5  H    0.162553
     6  H    0.127718
     7  H    0.162821
 Sum of Mulliken charges =  -0.00000

 Dipole moment (field-independent basis, Debye):
    X=              0.1668    Y=             -0.0155    Z=              1.3602  Tot=              1.3704
 Quadrupole moment (field-independent basis, Debye-Ang):
   XX=            -13.6137   YY=            -12.1343   ZZ=            -15.2655
   XY=              0.0768   XZ=             -2.0586   YZ=              0.0231

 Normal termination of Gaussian 16 at Fri Sep 22 11:10:29 2023.
