 Gaussian 16, Revision A.03,
 Gaussian 16:  ES64L-G16RevA.03 25-Dec-2016

 ----------------
 # 6-31g(d) wb97x
 ----------------

 -----------------------
 tmpdir/M3_conf_0_33.gjf
 -----------------------
 Symbolic Z-matrix:
 Charge =  0 Multiplicity = 1

                         Standard orientation:
 ---------------------------------------------------------------------
 Center     Atomic      Atomic             Coordinates (Angstroms)
 Number     Number       Type             X           Y           Z
 ---------------------------------------------------------------------
      1          6           0       -0.000381    0.002378   -0.001607
      2          1           0       -0.142648   -0.403583    1.004816
      3          1           0        1.109123   -0.057854   -0.268313
      4          1           0       -0.616989   -0.599940   -0.698905
      5          1           0       -0.347198    1.047107   -0.027958
 ---------------------------------------------------------------------

 SCF Done:  E(RwB97X) =  -40.4976903975     A.U. after   11 cycles

 The electronic state is 1-A.
 Alpha  occ. eigenvalues --  -10.25692  -0.81247  -0.49499  -0.49203  -0.48786
 Alpha virt. eigenvalues --    0.21094   0.26427   0.27070   0.27444   0.63958
 Alpha virt. eigenvalues --    0.64273   0.65607   0.98790   1.00688   1.01446
 Alpha virt. eigenvalues --    1.05102   1.20218   1.76013   1.76261   2.29828

 Mulliken charges:
               1
     1  C   -0.658911
     2  H    0.168199
     3  H    0.157720
     4  H    0.165293
     5  H    0.167699
 Sum of Mulliken charges =  -0.00000

 Dipole moment (field-independent basis, Debye):
    X=             -0.0374    Y=             -0.0051    Z=              0.0288  Tot=              0.0475
 Quadrupole moment (field-independent basis, Debye-Ang):
   XX=             -8.2114   YY=             -8.3033   ZZ=             -8.3849
   XY=             -0.0017   XZ=              0.0149   YZ=             -0.0117

 Normal termination of Gaussian 16 at Fri Sep 22 11:10:40 2023.
