 Gaussian 16, Revision A.03,
 Gaussian 16:  ES64L-G16RevA.03 25-Dec-2016

 ----------------
 # 6-31g(d) wb97x
 ----------------

 -----------------------
 tmpdir/M3_conf_2_63.gjf
 -----------------------
 Symbolic Z-matrix:
 Charge =  0 Multiplicity = 1

                         Standard orientation:
 ---------------------------------------------------------------------
 Center     Atomic      Atomic             Coordinates (Angstroms)
 Number     Number       Type             X           Y           Z
 ---------------------------------------------------------------------
      1          1           0        2.734598    0.104934    1.057668
      2          6           0        2.419468   -0.010629    0.011704
      3          6           0        0.905222   -0.004123   -0.024643
      4          6           0        0.202770    1.201857   -0.011919
      5          6           0        0.187458   -1.200400   -0.018378
      6          1           0        0.763995    2.132649   -0.014618
      7          6           0       -1.186463    1.210541   -0.001134
      8          1           0        0.723183   -2.147714   -0.033457
      9          6           0       -1.201082   -1.195738    0.008302
     10          1           0       -1.708269    2.164432    0.045699
     11          6           0       -1.900938    0.010185    0.002627
     12          1           0       -1.765565   -2.123683    0.025803
     13          1           0        2.887186    0.841850   -0.585095
     14          1           0        2.793397   -0.999722   -0.319252
     15          1           0       -2.987137   -0.042905    0.023900
 ---------------------------------------------------------------------

 SCF Done:  E(RwB97X) =  -271.484276507     A.U. after   13 cycles

 The electronic state is 1-A.
 Alpha  occ. eigenvalues --  -10.27773 -10.27106 -10.27019 -10.26821 -10.26726
 Alpha  occ. eigenvalues --  -10.26583 -10.26557  -0.98386  -0.89535  -0.86791
 Alpha  occ. eigenvalues --   -0.80340  -0.71984  -0.69575  -0.62010  -0.56303
 Alpha  occ. eigenvalues --   -0.55906  -0.52374  -0.52065  -0.50593  -0.48482
 Alpha  occ. eigenvalues --   -0.45977  -0.43513  -0.43044  -0.33698  -0.32502
 Alpha virt. eigenvalues --    0.08901   0.09062   0.18753   0.21372   0.23241
 Alpha virt. eigenvalues --    0.24678   0.26174   0.27279   0.28692   0.29496
 Alpha virt. eigenvalues --    0.30815   0.33589   0.40707   0.41947   0.43248

 Mulliken charges:
               1
     1  H    0.179578
     2  C   -0.537137
     3  C    0.130315
     4  C   -0.194004
     5  C   -0.198651
     6  H    0.150788
     7  C   -0.160279
     8  H    0.148842
     9  C   -0.156511
    10  H    0.157616
    11  C   -0.165080
    12  H    0.157508
    13  H    0.163192
    14  H    0.165719
    15  H    0.158104
 Sum of Mulliken charges =  -0.00000

 Dipole moment (field-independent basis, Debye):
    X=              0.2842    Y=             -0.0111    Z=              0.1351  Tot=              0.3148
 Quadrupole moment (field-independent basis, Debye-Ang):
   XX=            -37.7093   YY=            -37.8598   ZZ=            -45.1324
   XY=              0.2562   XZ=              0.0273   YZ=              0.0051

 Normal termination of Gaussian 16 at Fri Sep 22 11:15:33 2023.
