 Gaussian 16, Revision A.03,
 Gaussian 16:  ES64L-G16RevA.03 25-Dec-2016

 ----------------
 # 6-31g(d) wb97x
 ----------------

 -----------------------
 tmpdir/M3_conf_1_27.gjf
 -----------------------
 Symbolic Z-matrix:
 Charge =  0 Multiplicity = 1

                         Standard orientation:
 ---------------------------------------------------------------------
 Center     Atomic      Atomic             Coordinates (Angstroms)
 Number     Number       Type             X           Y           Z
 ---------------------------------------------------------------------
      1          7           0       -0.737649   -0.000017   -0.116893
      2          6           0        0.704219    0.000025    0.015131
      3          1           0        0.995255   -0.000248    1.083498
      4          1           0       -1.149231   -0.834072    0.296471
      5          1           0       -1.149675    0.833818    0.296720
      6          1           0        1.120716    0.887021   -0.474418
      7          1           0        1.121166   -0.886549   -0.474806
 ---------------------------------------------------------------------

 SCF Done:  E(RwB97X) =  -95.8215834895     A.U. after   13 cycles

 The electronic state is 1-A.
 Alpha  occ. eigenvalues --  -14.37902 -10.27929  -0.99553  -0.77436  -0.59941
 Alpha  occ. eigenvalues --   -0.53713  -0.50965  -0.46809  -0.32110
 Alpha virt. eigenvalues --    0.18487   0.24302   0.25433   0.27702   0.29058
 Alpha virt. eigenvalues --    0.34435   0.66192   0.67324   0.70052   0.85040
 Alpha virt. eigenvalues --    0.87186   0.89759   0.97815   1.03407   1.04477

 Mulliken charges:
               1
     1  N   -0.742304
     2  C   -0.326819
     3  H    0.127863
     4  H    0.307389
     5  H    0.307391
     6  H    0.163237
     7  H    0.163243
 Sum of Mulliken charges =  -0.00000

 Dipole moment (field-independent basis, Debye):
    X=              0.1444    Y=             -0.0002    Z=              1.3569  Tot=              1.3646
 Quadrupole moment (field-independent basis, Debye-Ang):
   XX=            -13.5439   YY=            -12.2100   ZZ=            -15.2188
   XY=             -0.0006   XZ=             -2.1081   YZ=              0.0001

 Normal termination of Gaussian 16 at Fri Sep 22 11:12:37 2023.
