 Gaussian 16, Revision A.03,
 Gaussian 16:  ES64L-G16RevA.03 25-Dec-2016

 ----------------
 # 6-31g(d) wb97x
 ----------------

 -----------------------
 tmpdir/M3_conf_1_28.gjf
 -----------------------
 Symbolic Z-matrix:
 Charge =  0 Multiplicity = 1

                         Standard orientation:
 ---------------------------------------------------------------------
 Center     Atomic      Atomic             Coordinates (Angstroms)
 Number     Number       Type             X           Y           Z
 ---------------------------------------------------------------------
      1          7           0        0.742916   -0.000472   -0.115160
      2          6           0       -0.699266    0.000435    0.013382
      3          1           0       -1.163145   -0.861025   -0.479165
      4          1           0        1.155369    0.825088    0.314078
      5          1           0        1.152049   -0.842531    0.284422
      6          1           0       -1.036075   -0.017456    1.068063
      7          1           0       -1.113014    0.896618   -0.461570
 ---------------------------------------------------------------------

 SCF Done:  E(RwB97X) =  -95.8220039526     A.U. after   13 cycles

 The electronic state is 1-A.
 Alpha  occ. eigenvalues --  -14.38109 -10.27925  -0.99568  -0.77612  -0.59918
 Alpha  occ. eigenvalues --   -0.53872  -0.50864  -0.46679  -0.32282
 Alpha virt. eigenvalues --    0.18596   0.24085   0.25381   0.27806   0.29117
 Alpha virt. eigenvalues --    0.34677   0.66218   0.67182   0.69864   0.84967
 Alpha virt. eigenvalues --    0.87512   0.90061   0.97849   1.03317   1.04264

 Mulliken charges:
               1
     1  N   -0.740069
     2  C   -0.329319
     3  H    0.162686
     4  H    0.309523
     5  H    0.308461
     6  H    0.126376
     7  H    0.162342
 Sum of Mulliken charges =   0.00000

 Dipole moment (field-independent basis, Debye):
    X=             -0.1380    Y=             -0.0232    Z=              1.3543  Tot=              1.3615
 Quadrupole moment (field-independent basis, Debye-Ang):
   XX=            -13.4038   YY=            -12.2523   ZZ=            -15.2760
   XY=              0.0123   XZ=              2.0917   YZ=              0.0222

 Normal termination of Gaussian 16 at Fri Sep 22 11:12:32 2023.
