 Gaussian 16, Revision A.03,
 Gaussian 16:  ES64L-G16RevA.03 25-Dec-2016

 ----------------
 # 6-31g(d) wb97x
 ----------------

 -----------------------
 tmpdir/M3_conf_2_32.gjf
 -----------------------
 Symbolic Z-matrix:
 Charge =  0 Multiplicity = 1

                         Standard orientation:
 ---------------------------------------------------------------------
 Center     Atomic      Atomic             Coordinates (Angstroms)
 Number     Number       Type             X           Y           Z
 ---------------------------------------------------------------------
      1          1           0       -0.228788   -0.468916    0.957327
      2          6           0        0.003221    0.005415   -0.002404
      3          1           0       -0.263864   -0.715608   -0.782591
      4          1           0        1.113209    0.251530   -0.051343
      5          1           0       -0.639883    0.900503   -0.108972
 ---------------------------------------------------------------------

 SCF Done:  E(RwB97X) =  -40.4976945889     A.U. after   11 cycles

 The electronic state is 1-A.
 Alpha  occ. eigenvalues --  -10.25572  -0.81339  -0.49447  -0.49165  -0.48995
 Alpha virt. eigenvalues --    0.21149   0.26641   0.27198   0.27348   0.63771
 Alpha virt. eigenvalues --    0.64205   0.65651   0.99105   1.00921   1.01234
 Alpha virt. eigenvalues --    1.05793   1.20401   1.76050   1.76093   2.29752

 Mulliken charges:
               1
     1  H    0.167010
     2  C   -0.660642
     3  H    0.167571
     4  H    0.159957
     5  H    0.166104
 Sum of Mulliken charges =  -0.00000

 Dipole moment (field-independent basis, Debye):
    X=             -0.0465    Y=             -0.0408    Z=              0.0130  Tot=              0.0632
 Quadrupole moment (field-independent basis, Debye-Ang):
   XX=             -8.1492   YY=             -8.3228   ZZ=             -8.4065
   XY=             -0.0100   XZ=              0.0035   YZ=              0.0040

 Normal termination of Gaussian 16 at Fri Sep 22 11:14:21 2023.
