 Gaussian 16, Revision A.03,
 Gaussian 16:  ES64L-G16RevA.03 25-Dec-2016

 ----------------
 # 6-31g(d) wb97x
 ----------------

 -----------------------
 tmpdir/M3_conf_1_88.gjf
 -----------------------
 Symbolic Z-matrix:
 Charge =  0 Multiplicity = 1

                         Standard orientation:
 ---------------------------------------------------------------------
 Center     Atomic      Atomic             Coordinates (Angstroms)
 Number     Number       Type             X           Y           Z
 ---------------------------------------------------------------------
      1          6           0        0.917253   -0.059298    0.000348
      2          7           0        2.319244   -0.041810    0.000713
      3          1           0        2.758067    0.865980    0.032726
      4          6           0        0.171218   -1.240536   -0.000151
      5          6           0        0.274807    1.197519   -0.001034
      6          6           0       -1.221796   -1.174479    0.006708
      7          1           0        0.675148   -2.192917   -0.006143
      8          6           0       -1.114174    1.221892   -0.004225
      9          6           0       -1.870458    0.058039    0.000946
     10          1           0       -1.620842    2.184717   -0.007309
     11          1           0       -2.957185    0.110183    0.008759
     12          1           0        2.982937   -0.737288   -0.028786
     13          1           0        0.844437    2.128712   -0.001128
     14          1           0       -1.858366   -2.085533   -0.018661
 ---------------------------------------------------------------------

 SCF Done:  E(RwB97X) =  -287.510574771     A.U. after   14 cycles

 The electronic state is 1-A.
 Alpha  occ. eigenvalues --  -14.40530 -10.31442 -10.26851 -10.26399 -10.26010
 Alpha  occ. eigenvalues --  -10.25792 -10.25114  -1.03795  -0.95879  -0.86368
 Alpha  occ. eigenvalues --   -0.84664  -0.72363  -0.71346  -0.63745  -0.61149
 Alpha  occ. eigenvalues --   -0.58230  -0.52935  -0.52529  -0.51637  -0.48784
 Alpha  occ. eigenvalues --   -0.44856  -0.43079  -0.40400  -0.33292  -0.27826
 Alpha virt. eigenvalues --    0.09388   0.11407   0.18722   0.19811   0.22875
 Alpha virt. eigenvalues --    0.26213   0.27299   0.28631   0.29244   0.30277
 Alpha virt. eigenvalues --    0.36504   0.40978   0.42421   0.45449   0.46449

 Mulliken charges:
               1
     1  C    0.349813
     2  N   -0.856802
     3  H    0.335054
     4  C   -0.205767
     5  C   -0.220840
     6  C   -0.163560
     7  H    0.148634
     8  C   -0.157737
     9  C   -0.173447
    10  H    0.151490
    11  H    0.149282
    12  H    0.341048
    13  H    0.147659
    14  H    0.155172
 Sum of Mulliken charges =  -0.00000

 Dipole moment (field-independent basis, Debye):
    X=              1.7004    Y=              0.1105    Z=             -0.0182  Tot=              1.7041
 Quadrupole moment (field-independent basis, Debye-Ang):
   XX=            -31.6630   YY=            -35.9843   ZZ=            -45.9211
   XY=              0.2242   XZ=             -0.0089   YZ=              0.1528

 Normal termination of Gaussian 16 at Fri Sep 22 11:13:44 2023.
