 Gaussian 16, Revision A.03,
 Gaussian 16:  ES64L-G16RevA.03 25-Dec-2016

 ----------------
 # 6-31g(d) wb97x
 ----------------

 -----------------------
 tmpdir/M3_conf_1_57.gjf
 -----------------------
 Symbolic Z-matrix:
 Charge =  0 Multiplicity = 1

                         Standard orientation:
 ---------------------------------------------------------------------
 Center     Atomic      Atomic             Coordinates (Angstroms)
 Number     Number       Type             X           Y           Z
 ---------------------------------------------------------------------
      1          6           0        2.430272   -0.010491    0.012134
      2          6           0        0.902826   -0.004033   -0.024541
      3          6           0        0.200299    1.201902   -0.011816
      4          6           0        0.185147   -1.200361   -0.018296
      5          1           0        0.761455    2.132729   -0.014509
      6          6           0       -1.188936    1.210487   -0.001040
      7          1           0        0.720934   -2.147631   -0.033371
      8          6           0       -1.203387   -1.195792    0.008378
      9          1           0       -1.710813    2.164345    0.045792
     10          6           0       -1.903332    0.010077    0.002703
     11          1           0       -1.767807   -2.123781    0.025871
     12          1           0        2.894740    0.841650   -0.587678
     13          1           0        2.801504   -0.999779   -0.321259
     14          1           0        2.752177    0.104811    1.056065
     15          1           0       -2.989529   -0.043086    0.023961
 ---------------------------------------------------------------------

 SCF Done:  E(RwB97X) =  -271.484181202     A.U. after   13 cycles

 The electronic state is 1-A.
 Alpha  occ. eigenvalues --  -10.27866 -10.27201 -10.27028 -10.26832 -10.26744
 Alpha  occ. eigenvalues --  -10.26605 -10.26579  -0.98355  -0.89380  -0.86798
 Alpha  occ. eigenvalues --   -0.80324  -0.71966  -0.69604  -0.62023  -0.56241
 Alpha  occ. eigenvalues --   -0.55869  -0.52259  -0.52071  -0.50529  -0.48525
 Alpha  occ. eigenvalues --   -0.46017  -0.43461  -0.43037  -0.33705  -0.32555
 Alpha virt. eigenvalues --    0.08903   0.09054   0.18727   0.21350   0.23277
 Alpha virt. eigenvalues --    0.24718   0.26138   0.27269   0.28675   0.29475
 Alpha virt. eigenvalues --    0.30773   0.33289   0.40705   0.41923   0.43161

 Mulliken charges:
               1
     1  C   -0.535162
     2  C    0.127660
     3  C   -0.194020
     4  C   -0.198549
     5  H    0.151011
     6  C   -0.160254
     7  H    0.149028
     8  C   -0.156492
     9  H    0.157732
    10  C   -0.164946
    11  H    0.157624
    12  H    0.163066
    13  H    0.165682
    14  H    0.179382
    15  H    0.158239
 Sum of Mulliken charges =  -0.00000

 Dipole moment (field-independent basis, Debye):
    X=              0.2770    Y=             -0.0119    Z=              0.1326  Tot=              0.3074
 Quadrupole moment (field-independent basis, Debye-Ang):
   XX=            -37.6770   YY=            -37.8547   ZZ=            -45.1471
   XY=              0.2549   XZ=              0.0315   YZ=              0.0047

 Normal termination of Gaussian 16 at Fri Sep 22 11:12:56 2023.
