 Gaussian 16, Revision A.03,
 Gaussian 16:  ES64L-G16RevA.03 25-Dec-2016

 ----------------
 # 6-31g(d) wb97x
 ----------------

 -----------------------
 tmpdir/M3_conf_1_20.gjf
 -----------------------
 Symbolic Z-matrix:
 Charge =  0 Multiplicity = 1

                         Standard orientation:
 ---------------------------------------------------------------------
 Center     Atomic      Atomic             Coordinates (Angstroms)
 Number     Number       Type             X           Y           Z
 ---------------------------------------------------------------------
      1          7           0       -0.749331    0.002041   -0.113483
      2          6           0        0.710966    0.000769    0.011080
      3          1           0       -1.134469    0.844368    0.308511
      4          1           0       -1.156856   -0.834187    0.289558
      5          1           0        1.105774   -0.895698   -0.481664
      6          1           0        1.025953   -0.031474    1.073604
      7          1           0        1.139121    0.898090   -0.462109
 ---------------------------------------------------------------------

 SCF Done:  E(RwB97X) =  -95.8215597484     A.U. after   13 cycles

 The electronic state is 1-A.
 Alpha  occ. eigenvalues --  -14.38002 -10.28149  -0.99189  -0.77464  -0.60036
 Alpha  occ. eigenvalues --   -0.53394  -0.50420  -0.47148  -0.32223
 Alpha virt. eigenvalues --    0.18457   0.24141   0.25584   0.27534   0.29030
 Alpha virt. eigenvalues --    0.33811   0.65947   0.67595   0.69668   0.84835
 Alpha virt. eigenvalues --    0.87434   0.89498   0.97716   1.02555   1.04742

 Mulliken charges:
               1
     1  N   -0.744306
     2  C   -0.329094
     3  H    0.307795
     4  H    0.310086
     5  H    0.163170
     6  H    0.128932
     7  H    0.163418
 Sum of Mulliken charges =  -0.00000

 Dipole moment (field-independent basis, Debye):
    X=              0.1860    Y=             -0.0157    Z=              1.3647  Tot=              1.3774
 Quadrupole moment (field-independent basis, Debye-Ang):
   XX=            -13.5848   YY=            -12.1392   ZZ=            -15.2682
   XY=              0.0763   XZ=             -2.0620   YZ=              0.0229

 Normal termination of Gaussian 16 at Fri Sep 22 11:12:21 2023.
