 Gaussian 16, Revision A.03,
 Gaussian 16:  ES64L-G16RevA.03 25-Dec-2016

 ----------------
 # 6-31g(d) wb97x
 ----------------

 -----------------------
 tmpdir/M3_conf_2_55.gjf
 -----------------------
 Symbolic Z-matrix:
 Charge =  0 Multiplicity = 1

                         Standard orientation:
 ---------------------------------------------------------------------
 Center     Atomic      Atomic             Coordinates (Angstroms)
 Number     Number       Type             X           Y           Z
 ---------------------------------------------------------------------
      1          6           0        0.000558    0.006221   -0.008477
      2          1           0       -0.472925   -0.804571   -0.584248
      3          1           0        1.109096    0.112148   -0.256639
      4          1           0       -0.076568   -0.279849    1.049318
      5          1           0       -0.562954    0.934949   -0.157570
 ---------------------------------------------------------------------

 SCF Done:  E(RwB97X) =  -40.4974101357     A.U. after   11 cycles

 The electronic state is 1-A.
 Alpha  occ. eigenvalues --  -10.25586  -0.81336  -0.49708  -0.49309  -0.48571
 Alpha virt. eigenvalues --    0.21132   0.26492   0.27200   0.27452   0.63848
 Alpha virt. eigenvalues --    0.64117   0.65709   0.98790   1.00918   1.01557
 Alpha virt. eigenvalues --    1.05687   1.20405   1.76016   1.76193   2.29568

 Mulliken charges:
               1
     1  C   -0.660708
     2  H    0.166784
     3  H    0.159114
     4  H    0.165377
     5  H    0.169432
 Sum of Mulliken charges =  -0.00000

 Dipole moment (field-independent basis, Debye):
    X=             -0.0428    Y=             -0.0242    Z=              0.0458  Tot=              0.0672
 Quadrupole moment (field-independent basis, Debye-Ang):
   XX=             -8.1424   YY=             -8.2945   ZZ=             -8.4457
   XY=             -0.0188   XZ=              0.0210   YZ=              0.0012

 Normal termination of Gaussian 16 at Fri Sep 22 11:14:46 2023.
