 Gaussian 16, Revision A.03,
 Gaussian 16:  ES64L-G16RevA.03 25-Dec-2016

 ----------------
 # 6-31g(d) wb97x
 ----------------

 -----------------------
 tmpdir/M3_conf_1_69.gjf
 -----------------------
 Symbolic Z-matrix:
 Charge =  0 Multiplicity = 1

                         Standard orientation:
 ---------------------------------------------------------------------
 Center     Atomic      Atomic             Coordinates (Angstroms)
 Number     Number       Type             X           Y           Z
 ---------------------------------------------------------------------
      1          8           0       -1.201812   -0.258250    0.013709
      2          6           0       -0.166796    0.390207   -0.014530
      3          7           0        1.087858   -0.159230   -0.021767
      4          1           0       -0.185358    1.477724   -0.021445
      5          1           0        1.850007    0.479399    0.149583
      6          1           0        1.335615   -1.117748    0.001737
 ---------------------------------------------------------------------

 SCF Done:  E(RwB97X) =  -169.839849431     A.U. after   16 cycles

 The electronic state is 1-A.
 Alpha  occ. eigenvalues --  -19.18168 -14.43881 -10.37542  -1.15387  -1.03536
 Alpha  occ. eigenvalues --   -0.75344  -0.65819  -0.60301  -0.51725  -0.50818
 Alpha  occ. eigenvalues --   -0.37180  -0.35546
 Alpha virt. eigenvalues --    0.12326   0.17881   0.20849   0.27688   0.36529
 Alpha virt. eigenvalues --    0.44317   0.64271   0.65709   0.75319   0.79409
 Alpha virt. eigenvalues --    0.81094   0.83179   0.95730   0.98101   0.99612

 Mulliken charges:
               1
     1  O   -0.449452
     2  C    0.344629
     3  N   -0.738822
     4  H    0.134600
     5  H    0.342877
     6  H    0.366169
 Sum of Mulliken charges =   0.00000

 Dipole moment (field-independent basis, Debye):
    X=              3.8134    Y=              0.9719    Z=              0.2731  Tot=              3.9448
 Quadrupole moment (field-independent basis, Debye-Ang):
   XX=            -17.3399   YY=            -14.7666   ZZ=            -18.3906
   XY=             -1.4320   XZ=              0.6972   YZ=              0.1446

 Normal termination of Gaussian 16 at Fri Sep 22 11:13:16 2023.
