 Gaussian 16, Revision A.03,
 Gaussian 16:  ES64L-G16RevA.03 25-Dec-2016

 ----------------
 # 6-31g(d) wb97x
 ----------------

 -----------------------
 tmpdir/M3_conf_0_79.gjf
 -----------------------
 Symbolic Z-matrix:
 Charge =  0 Multiplicity = 1

                         Standard orientation:
 ---------------------------------------------------------------------
 Center     Atomic      Atomic             Coordinates (Angstroms)
 Number     Number       Type             X           Y           Z
 ---------------------------------------------------------------------
      1          6           0        0.911148   -0.006532   -0.000164
      2          6           0        2.419095    0.006121    0.000576
      3          1           0        2.793051    1.033558   -0.006643
      4          6           0        0.197096    1.185109   -0.003530
      5          6           0        0.184394   -1.216555    0.000619
      6          6           0       -1.190644    1.211264    0.000836
      7          1           0        0.746176    2.124383   -0.006105
      8          6           0       -1.212674   -1.208290   -0.000721
      9          6           0       -1.893602    0.008771    0.005858
     10          1           0       -1.721256    2.161078    0.008530
     11          1           0       -1.754335   -2.139716   -0.007119
     12          1           0        2.836149   -0.497580   -0.881437
     13          1           0        2.835810   -0.483405    0.891067
     14          1           0        0.779001   -2.144502    0.001093
     15          1           0       -3.003476    0.066858   -0.020225
 ---------------------------------------------------------------------

 SCF Done:  E(RwB97X) =  -271.485404210     A.U. after   13 cycles

 The electronic state is 1-A.
 Alpha  occ. eigenvalues --  -10.27771 -10.27113 -10.27039 -10.27017 -10.26819
 Alpha  occ. eigenvalues --  -10.26471 -10.26447  -0.98294  -0.89628  -0.86728
 Alpha  occ. eigenvalues --   -0.80522  -0.72018  -0.69570  -0.61879  -0.56228
 Alpha  occ. eigenvalues --   -0.55986  -0.52703  -0.52107  -0.50553  -0.48363
 Alpha  occ. eigenvalues --   -0.46088  -0.43527  -0.43010  -0.33685  -0.32543
 Alpha virt. eigenvalues --    0.08561   0.09294   0.18686   0.21765   0.23495
 Alpha virt. eigenvalues --    0.25118   0.25657   0.27242   0.28644   0.30073
 Alpha virt. eigenvalues --    0.30734   0.33767   0.40942   0.41606   0.42260

 Mulliken charges:
               1
     1  C    0.134258
     2  C   -0.544898
     3  H    0.167446
     4  C   -0.203438
     5  C   -0.198956
     6  C   -0.150907
     7  H    0.146466
     8  C   -0.157713
     9  C   -0.168996
    10  H    0.160066
    11  H    0.161192
    12  H    0.174358
    13  H    0.174513
    14  H    0.151441
    15  H    0.155168
 Sum of Mulliken charges =  -0.00000

 Dipole moment (field-independent basis, Debye):
    X=              0.3311    Y=             -0.0040    Z=             -0.0142  Tot=              0.3314
 Quadrupole moment (field-independent basis, Debye-Ang):
   XX=            -37.4460   YY=            -37.9515   ZZ=            -45.0915
   XY=             -0.2392   XZ=              0.0562   YZ=              0.0188

 Normal termination of Gaussian 16 at Fri Sep 22 11:11:25 2023.
