 Gaussian 16, Revision A.03,
 Gaussian 16:  ES64L-G16RevA.03 25-Dec-2016

 ----------------
 # 6-31g(d) wb97x
 ----------------

 -----------------------
 tmpdir/M3_conf_0_17.gjf
 -----------------------
 Symbolic Z-matrix:
 Charge =  0 Multiplicity = 1

                         Standard orientation:
 ---------------------------------------------------------------------
 Center     Atomic      Atomic             Coordinates (Angstroms)
 Number     Number       Type             X           Y           Z
 ---------------------------------------------------------------------
      1          1           0       -1.103122   -0.896871   -0.477501
      2          6           0       -0.704913    0.000454    0.011141
      3          7           0        0.743317    0.001777   -0.113747
      4          1           0       -1.132687    0.897540   -0.464017
      5          1           0       -1.017669   -0.026243    1.074269
      6          1           0        1.150965   -0.834253    0.289570
      7          1           0        1.128771    0.844664    0.307068
 ---------------------------------------------------------------------

 SCF Done:  E(RwB97X) =  -95.8215524826     A.U. after   13 cycles

 The electronic state is 1-A.
 Alpha  occ. eigenvalues --  -14.37954 -10.28048  -0.99495  -0.77373  -0.60201
 Alpha  occ. eigenvalues --   -0.53568  -0.50543  -0.47030  -0.32174
 Alpha virt. eigenvalues --    0.18455   0.24246   0.25490   0.27560   0.29059
 Alpha virt. eigenvalues --    0.34243   0.66058   0.67774   0.69757   0.84855
 Alpha virt. eigenvalues --    0.87322   0.89543   0.97733   1.02598   1.04788

 Mulliken charges:
               1
     1  H    0.162409
     2  C   -0.328270
     3  N   -0.741636
     4  H    0.162469
     5  H    0.127403
     6  H    0.309931
     7  H    0.307693
 Sum of Mulliken charges =  -0.00000

 Dipole moment (field-independent basis, Debye):
    X=             -0.1617    Y=             -0.0145    Z=              1.3595  Tot=              1.3692
 Quadrupole moment (field-independent basis, Debye-Ang):
   XX=            -13.6219   YY=            -12.1317   ZZ=            -15.2669
   XY=             -0.0696   XZ=              2.0586   YZ=              0.0215

 Normal termination of Gaussian 16 at Fri Sep 22 11:10:30 2023.
