 Gaussian 16, Revision A.03,
 Gaussian 16:  ES64L-G16RevA.03 25-Dec-2016

 ----------------
 # 6-31g(d) wb97x
 ----------------

 -----------------------
 tmpdir/M3_conf_0_40.gjf
 -----------------------
 Symbolic Z-matrix:
 Charge =  0 Multiplicity = 1

                         Standard orientation:
 ---------------------------------------------------------------------
 Center     Atomic      Atomic             Coordinates (Angstroms)
 Number     Number       Type             X           Y           Z
 ---------------------------------------------------------------------
      1          1           0        1.175905   -0.770937    0.657148
      2          6           0        0.760751   -0.000375   -0.003302
      3          6           0       -0.760418   -0.002039    0.006495
      4          1           0        1.138463    1.021369    0.341857
      5          1           0        1.093176   -0.226433   -1.036552
      6          1           0       -1.129643   -0.962256   -0.370036
      7          1           0       -1.116137    0.114500    1.048503
      8          1           0       -1.163760    0.838242   -0.660077
 ---------------------------------------------------------------------

 SCF Done:  E(RwB97X) =  -79.7970271872     A.U. after   12 cycles

 The electronic state is 1-A.
 Alpha  occ. eigenvalues --  -10.26093 -10.26074  -0.87876  -0.72441  -0.54434
 Alpha  occ. eigenvalues --   -0.54051  -0.46087  -0.43899  -0.43691
 Alpha virt. eigenvalues --    0.19214   0.25011   0.25367   0.25966   0.28137
 Alpha virt. eigenvalues --    0.28328   0.33651   0.61350   0.65970   0.66387
 Alpha virt. eigenvalues --    0.73510   0.75046   0.78892   0.97256   0.98835

 Mulliken charges:
               1
     1  H    0.158029
     2  C   -0.457863
     3  C   -0.457817
     4  H    0.146161
     5  H    0.153727
     6  H    0.156913
     7  H    0.154400
     8  H    0.146450
 Sum of Mulliken charges =  -0.00000

 Dipole moment (field-independent basis, Debye):
    X=             -0.0001    Y=             -0.0765    Z=              0.0106  Tot=              0.0772
 Quadrupole moment (field-independent basis, Debye-Ang):
   XX=            -15.7187   YY=            -14.6739   ZZ=            -14.6712
   XY=             -0.0514   XZ=              0.0937   YZ=              0.0067

 Normal termination of Gaussian 16 at Fri Sep 22 11:10:43 2023.
