 Gaussian 16, Revision A.03,
 Gaussian 16:  ES64L-G16RevA.03 25-Dec-2016

 ----------------
 # 6-31g(d) wb97x
 ----------------

 -----------------------
 tmpdir/M3_conf_2_53.gjf
 -----------------------
 Symbolic Z-matrix:
 Charge =  0 Multiplicity = 1

                         Standard orientation:
 ---------------------------------------------------------------------
 Center     Atomic      Atomic             Coordinates (Angstroms)
 Number     Number       Type             X           Y           Z
 ---------------------------------------------------------------------
      1          6           0       -1.278106   -0.195782    0.020005
      2          7           0       -0.000271    0.481592   -0.150619
      3          6           0        1.274163   -0.192056    0.019316
      4          1           0       -1.399344   -0.576165    1.052509
      5          1           0       -1.316507   -1.053336   -0.662221
      6          1           0       -2.107630    0.492396   -0.207661
      7          1           0        0.041612    1.302447    0.454757
      8          1           0        1.469406   -0.443910    1.080504
      9          1           0        1.218820   -1.147347   -0.520172
     10          1           0        2.119206    0.381800   -0.379312
 ---------------------------------------------------------------------

 SCF Done:  E(RwB97X) =  -135.115580353     A.U. after   13 cycles

 The electronic state is 1-A.
 Alpha  occ. eigenvalues --  -14.38376 -10.28360 -10.28110  -1.01541  -0.82734
 Alpha  occ. eigenvalues --   -0.73782  -0.59194  -0.54459  -0.53597  -0.49117
 Alpha  occ. eigenvalues --   -0.47679  -0.45218  -0.30209
 Alpha virt. eigenvalues --    0.18233   0.23966   0.24256   0.24949   0.26959
 Alpha virt. eigenvalues --    0.28192   0.29114   0.31384   0.37217   0.59958
 Alpha virt. eigenvalues --    0.65617   0.67554   0.70143   0.71420   0.84761

 Mulliken charges:
               1
     1  C   -0.316411
     2  N   -0.561183
     3  C   -0.321123
     4  H    0.126136
     5  H    0.160182
     6  H    0.166726
     7  H    0.298342
     8  H    0.125216
     9  H    0.154271
    10  H    0.167843
 Sum of Mulliken charges =   0.00000

 Dipole moment (field-independent basis, Debye):
    X=             -0.0138    Y=             -0.1117    Z=              0.9598  Tot=              0.9664
 Quadrupole moment (field-independent basis, Debye-Ang):
   XX=            -19.2228   YY=            -19.8910   ZZ=            -21.7188
   XY=              0.0412   XZ=             -0.0008   YZ=              1.7802

 Normal termination of Gaussian 16 at Fri Sep 22 11:14:38 2023.
