 Gaussian 16, Revision A.03,
 Gaussian 16:  ES64L-G16RevA.03 25-Dec-2016

 ----------------
 # 6-31g(d) wb97x
 ----------------

 -----------------------
 tmpdir/M3_conf_2_58.gjf
 -----------------------
 Symbolic Z-matrix:
 Charge =  0 Multiplicity = 1

                         Standard orientation:
 ---------------------------------------------------------------------
 Center     Atomic      Atomic             Coordinates (Angstroms)
 Number     Number       Type             X           Y           Z
 ---------------------------------------------------------------------
      1          7           0        0.740888   -0.006915   -0.115998
      2          6           0       -0.704985   -0.006541    0.011687
      3          1           0       -1.016155   -0.130497    1.067842
      4          1           0        1.155769    0.838636    0.274768
      5          1           0        1.160509   -0.831397    0.315489
      6          1           0       -1.065864    0.980502   -0.308020
      7          1           0       -1.190565   -0.769590   -0.608213
 ---------------------------------------------------------------------

 SCF Done:  E(RwB97X) =  -95.8211005424     A.U. after   12 cycles

 The electronic state is 1-A.
 Alpha  occ. eigenvalues --  -14.38041 -10.28030  -0.99384  -0.77478  -0.59816
 Alpha  occ. eigenvalues --   -0.53685  -0.50959  -0.46672  -0.32147
 Alpha virt. eigenvalues --    0.18416   0.24053   0.24932   0.28010   0.29401
 Alpha virt. eigenvalues --    0.34427   0.66185   0.67137   0.70037   0.84976
 Alpha virt. eigenvalues --    0.87541   0.90263   0.97804   1.02928   1.04106

 Mulliken charges:
               1
     1  N   -0.743493
     2  C   -0.325110
     3  H    0.128105
     4  H    0.308973
     5  H    0.307219
     6  H    0.159234
     7  H    0.165072
 Sum of Mulliken charges =   0.00000

 Dipole moment (field-independent basis, Debye):
    X=             -0.1326    Y=              0.0816    Z=              1.3624  Tot=              1.3713
 Quadrupole moment (field-independent basis, Debye-Ang):
   XX=            -13.4520   YY=            -12.2347   ZZ=            -15.2581
   XY=              0.0525   XZ=              2.0799   YZ=              0.0005

 Normal termination of Gaussian 16 at Fri Sep 22 11:14:51 2023.
