 Gaussian 16, Revision A.03,
 Gaussian 16:  ES64L-G16RevA.03 25-Dec-2016

 ----------------
 # 6-31g(d) wb97x
 ----------------

 -----------------------
 tmpdir/M3_conf_0_80.gjf
 -----------------------
 Symbolic Z-matrix:
 Charge =  0 Multiplicity = 1

                         Standard orientation:
 ---------------------------------------------------------------------
 Center     Atomic      Atomic             Coordinates (Angstroms)
 Number     Number       Type             X           Y           Z
 ---------------------------------------------------------------------
      1          6           0        0.911063   -0.006554   -0.000196
      2          6           0        2.419010    0.006089    0.000538
      3          1           0        2.840139   -0.496725   -0.880047
      4          6           0        0.197018    1.185089   -0.003528
      5          6           0        0.184302   -1.216573    0.000551
      6          6           0       -1.190722    1.211262    0.000846
      7          1           0        0.746104    2.124365   -0.006076
      8          6           0       -1.212766   -1.208299   -0.000777
      9          6           0       -1.893688    0.008766    0.005838
     10          1           0       -1.721328    2.161072    0.008568
     11          1           0       -1.754433   -2.139730   -0.007198
     12          1           0        2.793153    1.033463   -0.006657
     13          1           0        2.835725   -0.483463    0.891016
     14          1           0        0.778902   -2.144520    0.001005
     15          1           0       -3.003561    0.066862   -0.020240
 ---------------------------------------------------------------------

 SCF Done:  E(RwB97X) =  -271.485393766     A.U. after   13 cycles

 The electronic state is 1-A.
 Alpha  occ. eigenvalues --  -10.27775 -10.27114 -10.27040 -10.27019 -10.26820
 Alpha  occ. eigenvalues --  -10.26470 -10.26450  -0.98295  -0.89626  -0.86729
 Alpha  occ. eigenvalues --   -0.80525  -0.72019  -0.69575  -0.61884  -0.56226
 Alpha  occ. eigenvalues --   -0.55990  -0.52682  -0.52108  -0.50565  -0.48355
 Alpha  occ. eigenvalues --   -0.46086  -0.43534  -0.43010  -0.33687  -0.32545
 Alpha virt. eigenvalues --    0.08559   0.09291   0.18687   0.21766   0.23496
 Alpha virt. eigenvalues --    0.25115   0.25654   0.27244   0.28645   0.30073
 Alpha virt. eigenvalues --    0.30740   0.33773   0.40941   0.41610   0.42261

 Mulliken charges:
               1
     1  C    0.134620
     2  C   -0.545303
     3  H    0.174377
     4  C   -0.203453
     5  C   -0.198981
     6  C   -0.150914
     7  H    0.146501
     8  C   -0.157728
     9  C   -0.168978
    10  H    0.160083
    11  H    0.161201
    12  H    0.167440
    13  H    0.174469
    14  H    0.151485
    15  H    0.155182
 Sum of Mulliken charges =  -0.00000

 Dipole moment (field-independent basis, Debye):
    X=              0.3309    Y=             -0.0040    Z=             -0.0142  Tot=              0.3313
 Quadrupole moment (field-independent basis, Debye-Ang):
   XX=            -37.4350   YY=            -37.9513   ZZ=            -45.0957
   XY=             -0.2412   XZ=              0.0528   YZ=              0.0170

 Normal termination of Gaussian 16 at Fri Sep 22 11:11:28 2023.
