 Gaussian 16, Revision A.03,
 Gaussian 16:  ES64L-G16RevA.03 25-Dec-2016

 ----------------
 # 6-31g(d) wb97x
 ----------------

 -----------------------
 tmpdir/M3_conf_0_45.gjf
 -----------------------
 Symbolic Z-matrix:
 Charge =  0 Multiplicity = 1

                         Standard orientation:
 ---------------------------------------------------------------------
 Center     Atomic      Atomic             Coordinates (Angstroms)
 Number     Number       Type             X           Y           Z
 ---------------------------------------------------------------------
      1          6           0       -0.763192    0.002196    0.005319
      2          6           0        0.757972   -0.001557   -0.004460
      3          1           0        1.174659   -0.515081    0.868916
      4          1           0       -1.167767    0.575096   -0.896822
      5          1           0       -1.131150   -1.029788   -0.038660
      6          1           0       -1.116391    0.446375    0.957774
      7          1           0        1.113185   -0.552390   -0.896814
      8          1           0        1.158782    1.071952    0.000449
 ---------------------------------------------------------------------

 SCF Done:  E(RwB97X) =  -79.7973202617     A.U. after   12 cycles

 The electronic state is 1-A.
 Alpha  occ. eigenvalues --  -10.26134 -10.26075  -0.87836  -0.72548  -0.54355
 Alpha  occ. eigenvalues --   -0.53933  -0.46265  -0.43920  -0.43632
 Alpha virt. eigenvalues --    0.19300   0.25044   0.25221   0.25857   0.28187
 Alpha virt. eigenvalues --    0.28428   0.33765   0.61420   0.65782   0.66166
 Alpha virt. eigenvalues --    0.73920   0.75130   0.78898   0.97408   0.98846

 Mulliken charges:
               1
     1  C   -0.457244
     2  C   -0.459548
     3  H    0.157727
     4  H    0.148072
     5  H    0.157051
     6  H    0.154777
     7  H    0.154100
     8  H    0.145065
 Sum of Mulliken charges =   0.00000

 Dipole moment (field-independent basis, Debye):
    X=              0.0042    Y=             -0.0765    Z=              0.0367  Tot=              0.0850
 Quadrupole moment (field-independent basis, Debye-Ang):
   XX=            -15.6339   YY=            -14.6996   ZZ=            -14.6910
   XY=             -0.0164   XZ=              0.0953   YZ=              0.0178

 Normal termination of Gaussian 16 at Fri Sep 22 11:10:51 2023.
