 Gaussian 16, Revision A.03,
 Gaussian 16:  ES64L-G16RevA.03 25-Dec-2016

 ----------------
 # 6-31g(d) wb97x
 ----------------

 -----------------------
 tmpdir/M3_conf_2_62.gjf
 -----------------------
 Symbolic Z-matrix:
 Charge =  0 Multiplicity = 1

                         Standard orientation:
 ---------------------------------------------------------------------
 Center     Atomic      Atomic             Coordinates (Angstroms)
 Number     Number       Type             X           Y           Z
 ---------------------------------------------------------------------
      1          1           0        2.786752   -1.000854   -0.321740
      2          6           0        2.419450   -0.010267    0.012164
      3          6           0        0.905200   -0.003923   -0.024355
      4          6           0        0.202622    1.201981   -0.011714
      5          6           0        0.187568   -1.200285   -0.018183
      6          1           0        0.763741    2.132837   -0.014346
      7          6           0       -1.186604    1.210515   -0.001085
      8          1           0        0.723395   -2.147532   -0.033200
      9          6           0       -1.200968   -1.195767    0.008338
     10          1           0       -1.708526    2.164351    0.045684
     11          6           0       -1.900956    0.010070    0.002592
     12          1           0       -1.765359   -2.123780    0.025782
     13          1           0        2.886185    0.840294   -0.588138
     14          1           0        2.743087    0.103870    1.055684
     15          1           0       -2.987149   -0.043131    0.023733
 ---------------------------------------------------------------------

 SCF Done:  E(RwB97X) =  -271.484305779     A.U. after   13 cycles

 The electronic state is 1-A.
 Alpha  occ. eigenvalues --  -10.27769 -10.27102 -10.27019 -10.26824 -10.26731
 Alpha  occ. eigenvalues --  -10.26588 -10.26558  -0.98388  -0.89533  -0.86794
 Alpha  occ. eigenvalues --   -0.80338  -0.71987  -0.69577  -0.62014  -0.56307
 Alpha  occ. eigenvalues --   -0.55905  -0.52369  -0.52067  -0.50597  -0.48465
 Alpha  occ. eigenvalues --   -0.45980  -0.43521  -0.43040  -0.33700  -0.32510
 Alpha virt. eigenvalues --    0.08896   0.09052   0.18746   0.21376   0.23240
 Alpha virt. eigenvalues --    0.24681   0.26167   0.27287   0.28691   0.29507
 Alpha virt. eigenvalues --    0.30851   0.33594   0.40705   0.41943   0.43248

 Mulliken charges:
               1
     1  H    0.165394
     2  C   -0.536925
     3  C    0.130277
     4  C   -0.193851
     5  C   -0.198522
     6  H    0.150815
     7  C   -0.160360
     8  H    0.148829
     9  C   -0.156579
    10  H    0.157613
    11  C   -0.165001
    12  H    0.157530
    13  H    0.163065
    14  H    0.179580
    15  H    0.158136
 Sum of Mulliken charges =  -0.00000

 Dipole moment (field-independent basis, Debye):
    X=              0.2807    Y=             -0.0110    Z=              0.1331  Tot=              0.3109
 Quadrupole moment (field-independent basis, Debye-Ang):
   XX=            -37.7131   YY=            -37.8602   ZZ=            -45.1311
   XY=              0.2627   XZ=              0.0333   YZ=              0.0046

 Normal termination of Gaussian 16 at Fri Sep 22 11:15:16 2023.
