 Gaussian 16, Revision A.03,
 Gaussian 16:  ES64L-G16RevA.03 25-Dec-2016

 ----------------
 # 6-31g(d) wb97x
 ----------------

 -----------------------
 tmpdir/M3_conf_2_56.gjf
 -----------------------
 Symbolic Z-matrix:
 Charge =  0 Multiplicity = 1

                         Standard orientation:
 ---------------------------------------------------------------------
 Center     Atomic      Atomic             Coordinates (Angstroms)
 Number     Number       Type             X           Y           Z
 ---------------------------------------------------------------------
      1          6           0        0.000945    0.006134   -0.008612
      2          1           0       -0.069738   -0.207925    1.066918
      3          1           0        1.108522    0.061877   -0.276612
      4          1           0       -0.507499   -0.830625   -0.527250
      5          1           0       -0.536954    0.939872   -0.211387
 ---------------------------------------------------------------------

 SCF Done:  E(RwB97X) =  -40.4973087651     A.U. after   11 cycles

 The electronic state is 1-A.
 Alpha  occ. eigenvalues --  -10.25663  -0.81283  -0.49715  -0.49220  -0.48562
 Alpha virt. eigenvalues --    0.21087   0.26480   0.27051   0.27443   0.63881
 Alpha virt. eigenvalues --    0.64217   0.65731   0.98776   1.00599   1.01512
 Alpha virt. eigenvalues --    1.05426   1.20352   1.76049   1.76225   2.29466

 Mulliken charges:
               1
     1  C   -0.659918
     2  H    0.165547
     3  H    0.159362
     4  H    0.165313
     5  H    0.169696
 Sum of Mulliken charges =  -0.00000

 Dipole moment (field-independent basis, Debye):
    X=             -0.0409    Y=             -0.0164    Z=              0.0498  Tot=              0.0665
 Quadrupole moment (field-independent basis, Debye-Ang):
   XX=             -8.1480   YY=             -8.2977   ZZ=             -8.4509
   XY=             -0.0207   XZ=              0.0191   YZ=             -0.0076

 Normal termination of Gaussian 16 at Fri Sep 22 11:14:31 2023.
