 Gaussian 16, Revision A.03,
 Gaussian 16:  ES64L-G16RevA.03 25-Dec-2016

 ----------------
 # 6-31g(d) wb97x
 ----------------

 -----------------------
 tmpdir/M3_conf_1_19.gjf
 -----------------------
 Symbolic Z-matrix:
 Charge =  0 Multiplicity = 1

                         Standard orientation:
 ---------------------------------------------------------------------
 Center     Atomic      Atomic             Coordinates (Angstroms)
 Number     Number       Type             X           Y           Z
 ---------------------------------------------------------------------
      1          7           0       -0.746173   -0.000020   -0.113809
      2          6           0        0.707554    0.000025    0.013609
      3          1           0       -1.156146   -0.834067    0.301158
      4          1           0       -1.156590    0.833824    0.301392
      5          1           0        1.045886   -0.000224    1.067951
      6          1           0        1.122146    0.887015   -0.477565
      7          1           0        1.122594   -0.886561   -0.477922
 ---------------------------------------------------------------------

 SCF Done:  E(RwB97X) =  -95.8222927912     A.U. after   13 cycles

 The electronic state is 1-A.
 Alpha  occ. eigenvalues --  -14.38083 -10.28021  -0.99279  -0.77600  -0.59824
 Alpha  occ. eigenvalues --   -0.53696  -0.50580  -0.46923  -0.32308
 Alpha virt. eigenvalues --    0.18547   0.24119   0.25514   0.27710   0.29043
 Alpha virt. eigenvalues --    0.34161   0.66077   0.67196   0.69789   0.85035
 Alpha virt. eigenvalues --    0.87282   0.90053   0.97784   1.03139   1.04369

 Mulliken charges:
               1
     1  N   -0.743381
     2  C   -0.328354
     3  H    0.308237
     4  H    0.308237
     5  H    0.128522
     6  H    0.163367
     7  H    0.163372
 Sum of Mulliken charges =  -0.00000

 Dipole moment (field-independent basis, Debye):
    X=              0.1572    Y=             -0.0002    Z=              1.3593  Tot=              1.3683
 Quadrupole moment (field-independent basis, Debye-Ang):
   XX=            -13.4599   YY=            -12.2219   ZZ=            -15.2500
   XY=             -0.0006   XZ=             -2.0696   YZ=              0.0001

 Normal termination of Gaussian 16 at Fri Sep 22 11:12:29 2023.
