 Gaussian 16, Revision A.03,
 Gaussian 16:  ES64L-G16RevA.03 25-Dec-2016

 ----------------
 # 6-31g(d) wb97x
 ----------------

 -----------------------
 tmpdir/M3_conf_0_89.gjf
 -----------------------
 Symbolic Z-matrix:
 Charge =  0 Multiplicity = 1

                         Standard orientation:
 ---------------------------------------------------------------------
 Center     Atomic      Atomic             Coordinates (Angstroms)
 Number     Number       Type             X           Y           Z
 ---------------------------------------------------------------------
      1          1           0       -2.595288    0.907153   -0.003508
      2          7           0       -2.230625   -0.033383    0.005982
      3          6           0       -0.857319   -0.061219    0.000789
      4          7           0       -0.200712   -1.218526   -0.002941
      5          7           0       -0.307701    1.169181   -0.007299
      6          6           0        1.138184   -1.161739   -0.005421
      7          6           0        1.017023    1.200440   -0.002144
      8          6           0        1.810048    0.058634    0.004608
      9          1           0        1.470650    2.190891    0.002158
     10          1           0        2.890903    0.125944    0.039085
     11          1           0       -2.894212   -0.756813    0.012313
     12          1           0        1.653588   -2.104780   -0.007238
 ---------------------------------------------------------------------

 SCF Done:  E(RwB97X) =  -319.605456338     A.U. after   15 cycles

 The electronic state is 1-A.
 Alpha  occ. eigenvalues --  -14.41828 -14.40182 -14.39979 -10.37357 -10.32031
 Alpha  occ. eigenvalues --  -10.31857 -10.27110  -1.12725  -1.02554  -1.00988
 Alpha  occ. eigenvalues --   -0.89695  -0.77985  -0.76224  -0.66447  -0.64587
 Alpha  occ. eigenvalues --   -0.58718  -0.57879  -0.54886  -0.52682  -0.51359
 Alpha  occ. eigenvalues --   -0.42850  -0.41110  -0.40531  -0.34255  -0.31318
 Alpha virt. eigenvalues --    0.05738   0.09419   0.20154   0.21128   0.24302
 Alpha virt. eigenvalues --    0.26009   0.26951   0.27678   0.33564   0.35457
 Alpha virt. eigenvalues --    0.42660   0.43988   0.46440   0.49637   0.56591

 Mulliken charges:
               1
     1  H    0.357005
     2  N   -0.800036
     3  C    0.619438
     4  N   -0.456076
     5  N   -0.460519
     6  C    0.042495
     7  C    0.047406
     8  C   -0.230784
     9  H    0.174856
    10  H    0.169447
    11  H    0.357059
    12  H    0.179710
 Sum of Mulliken charges =  -0.00000

 Dipole moment (field-independent basis, Debye):
    X=              0.1164    Y=              0.1658    Z=              0.0322  Tot=              0.2051
 Quadrupole moment (field-independent basis, Debye-Ang):
   XX=            -28.0318   YY=            -40.8771   ZZ=            -42.2894
   XY=              0.1278   XZ=              0.0660   YZ=              0.0035

 Normal termination of Gaussian 16 at Fri Sep 22 11:12:07 2023.
