 Gaussian 16, Revision A.03,
 Gaussian 16:  ES64L-G16RevA.03 25-Dec-2016

 ----------------
 # 6-31g(d) wb97x
 ----------------

 -----------------------
 tmpdir/M3_conf_2_81.gjf
 -----------------------
 Symbolic Z-matrix:
 Charge =  0 Multiplicity = 1

                         Standard orientation:
 ---------------------------------------------------------------------
 Center     Atomic      Atomic             Coordinates (Angstroms)
 Number     Number       Type             X           Y           Z
 ---------------------------------------------------------------------
      1          6           0        0.910946   -0.006587   -0.000029
      2          6           0        2.418893    0.006042    0.000704
      3          1           0        2.845519   -0.481443    0.887613
      4          6           0        0.196914    1.185066   -0.003572
      5          6           0        0.184173   -1.216605    0.000730
      6          6           0       -1.190827    1.211249    0.000789
      7          1           0        0.746009    2.124330   -0.006297
      8          6           0       -1.212895   -1.208304   -0.000602
      9          6           0       -1.893804    0.008759    0.005995
     10          1           0       -1.721423    2.161066    0.008332
     11          1           0       -1.754571   -2.139736   -0.007012
     12          1           0        2.793046    1.033412   -0.006494
     13          1           0        2.835934   -0.497650   -0.881328
     14          1           0        0.778764   -2.144557    0.001188
     15          1           0       -3.003677    0.066861   -0.020093
 ---------------------------------------------------------------------

 SCF Done:  E(RwB97X) =  -271.485369872     A.U. after   13 cycles

 The electronic state is 1-A.
 Alpha  occ. eigenvalues --  -10.27781 -10.27115 -10.27043 -10.27021 -10.26822
 Alpha  occ. eigenvalues --  -10.26468 -10.26454  -0.98296  -0.89624  -0.86731
 Alpha  occ. eigenvalues --   -0.80528  -0.72020  -0.69582  -0.61891  -0.56223
 Alpha  occ. eigenvalues --   -0.55995  -0.52652  -0.52110  -0.50583  -0.48345
 Alpha  occ. eigenvalues --   -0.46082  -0.43546  -0.43011  -0.33688  -0.32547
 Alpha virt. eigenvalues --    0.08557   0.09286   0.18686   0.21769   0.23498
 Alpha virt. eigenvalues --    0.25113   0.25647   0.27246   0.28645   0.30074
 Alpha virt. eigenvalues --    0.30749   0.33783   0.40940   0.41616   0.42262

 Mulliken charges:
               1
     1  C    0.135110
     2  C   -0.545854
     3  H    0.174560
     4  C   -0.203467
     5  C   -0.199012
     6  C   -0.150930
     7  H    0.146549
     8  C   -0.157755
     9  C   -0.168944
    10  H    0.160107
    11  H    0.161211
    12  H    0.167422
    13  H    0.174253
    14  H    0.151545
    15  H    0.155203
 Sum of Mulliken charges =  -0.00000

 Dipole moment (field-independent basis, Debye):
    X=              0.3306    Y=             -0.0040    Z=             -0.0146  Tot=              0.3310
 Quadrupole moment (field-independent basis, Debye-Ang):
   XX=            -37.4200   YY=            -37.9508   ZZ=            -45.1018
   XY=             -0.2442   XZ=              0.0645   YZ=              0.0232

 Normal termination of Gaussian 16 at Fri Sep 22 11:15:27 2023.
