 Gaussian 16, Revision A.03,
 Gaussian 16:  ES64L-G16RevA.03 25-Dec-2016

 ----------------
 # 6-31g(d) wb97x
 ----------------

 -----------------------
 tmpdir/M3_conf_2_60.gjf
 -----------------------
 Symbolic Z-matrix:
 Charge =  0 Multiplicity = 1

                         Standard orientation:
 ---------------------------------------------------------------------
 Center     Atomic      Atomic             Coordinates (Angstroms)
 Number     Number       Type             X           Y           Z
 ---------------------------------------------------------------------
      1          7           0       -2.750822   -0.450136   -0.327273
      2          6           0       -1.899707    0.544629    0.299543
      3          6           0       -0.424342    0.248476    0.126599
      4          6           0        0.041999   -1.066492    0.163573
      5          6           0        0.497874    1.285058   -0.019395
      6          1           0       -0.677998   -1.872388    0.279735
      7          6           0        1.399585   -1.338449    0.048935
      8          1           0        0.146751    2.314660   -0.054790
      9          6           0        1.857154    1.018033   -0.118477
     10          1           0        1.739186   -2.370110    0.117765
     11          6           0        2.319062   -0.297402   -0.099753
     12          1           0        2.581357    1.821338   -0.219866
     13          1           0       -3.718119   -0.372403   -0.014102
     14          1           0       -2.710136   -0.397917   -1.345924
     15          1           0       -2.117384    1.566051   -0.070567
     16          1           0       -2.130504    0.549237    1.373514
     17          1           0        3.392844   -0.450637   -0.180998
 ---------------------------------------------------------------------

 SCF Done:  E(RwB97X) =  -326.814873475     A.U. after   13 cycles

 The electronic state is 1-A.
 Alpha  occ. eigenvalues --  -14.38911 -10.29415 -10.27023 -10.26562 -10.26531
 Alpha  occ. eigenvalues --  -10.26481 -10.26415 -10.25857  -1.01318  -0.97305
 Alpha  occ. eigenvalues --   -0.87668  -0.86353  -0.78030  -0.71569  -0.69046
 Alpha  occ. eigenvalues --   -0.62425  -0.59834  -0.57238  -0.55341  -0.52278
 Alpha  occ. eigenvalues --   -0.51701  -0.50786  -0.49257  -0.45948  -0.42940
 Alpha  occ. eigenvalues --   -0.42871  -0.33906  -0.33277  -0.31889
 Alpha virt. eigenvalues --    0.08975   0.09340   0.18472   0.20022   0.23152
 Alpha virt. eigenvalues --    0.23841   0.25923   0.27026   0.27307   0.29724
 Alpha virt. eigenvalues --    0.30139   0.30598   0.35111   0.35732   0.41246

 Mulliken charges:
               1
     1  N   -0.746843
     2  C   -0.207651
     3  C    0.099353
     4  C   -0.182188
     5  C   -0.203580
     6  H    0.176955
     7  C   -0.162329
     8  H    0.146492
     9  C   -0.158692
    10  H    0.156749
    11  C   -0.162354
    12  H    0.155321
    13  H    0.314170
    14  H    0.313526
    15  H    0.133256
    16  H    0.171211
    17  H    0.156607
 Sum of Mulliken charges =  -0.00000

 Dipole moment (field-independent basis, Debye):
    X=             -1.0479    Y=              0.9313    Z=             -0.3354  Tot=              1.4415
 Quadrupole moment (field-independent basis, Debye-Ang):
   XX=            -38.7115   YY=            -45.9432   ZZ=            -48.8480
   XY=             -2.1408   XZ=              0.5271   YZ=             -0.2412

 Normal termination of Gaussian 16 at Fri Sep 22 11:14:57 2023.
