 Gaussian 16, Revision A.03,
 Gaussian 16:  ES64L-G16RevA.03 25-Dec-2016

 ----------------
 # 6-31g(d) wb97x
 ----------------

 -----------------------
 tmpdir/M3_conf_0_46.gjf
 -----------------------
 Symbolic Z-matrix:
 Charge =  0 Multiplicity = 1

                         Standard orientation:
 ---------------------------------------------------------------------
 Center     Atomic      Atomic             Coordinates (Angstroms)
 Number     Number       Type             X           Y           Z
 ---------------------------------------------------------------------
      1          6           0        0.760299    0.000990   -0.005056
      2          6           0       -0.760872    0.000728    0.004465
      3          1           0       -1.108961    0.092364    1.051528
      4          1           0        1.162696    1.000471    0.375567
      5          1           0        1.129648   -0.799094    0.647454
      6          1           0        1.114313   -0.211845   -1.033930
      7          1           0       -1.131068   -0.949593   -0.395501
      8          1           0       -1.163191    0.857391   -0.641572
 ---------------------------------------------------------------------

 SCF Done:  E(RwB97X) =  -79.7971322661     A.U. after   11 cycles

 The electronic state is 1-A.
 Alpha  occ. eigenvalues --  -10.26091 -10.26069  -0.87891  -0.72415  -0.54445
 Alpha  occ. eigenvalues --   -0.54057  -0.46001  -0.43973  -0.43704
 Alpha virt. eigenvalues --    0.19218   0.25195   0.25266   0.25873   0.28138
 Alpha virt. eigenvalues --    0.28352   0.33606   0.61315   0.66176   0.66196
 Alpha virt. eigenvalues --    0.73791   0.74724   0.78882   0.97451   0.98822

 Mulliken charges:
               1
     1  C   -0.457970
     2  C   -0.457435
     3  H    0.154581
     4  H    0.146872
     5  H    0.156644
     6  H    0.154193
     7  H    0.157279
     8  H    0.145837
 Sum of Mulliken charges =   0.00000

 Dipole moment (field-independent basis, Debye):
    X=              0.0014    Y=             -0.0843    Z=              0.0154  Tot=              0.0857
 Quadrupole moment (field-independent basis, Debye-Ang):
   XX=            -15.7389   YY=            -14.6742   ZZ=            -14.6585
   XY=              0.0121   XZ=              0.0551   YZ=              0.0136

 Normal termination of Gaussian 16 at Fri Sep 22 11:10:54 2023.
