 Gaussian 16, Revision A.03,
 Gaussian 16:  ES64L-G16RevA.03 25-Dec-2016

 ----------------
 # 6-31g(d) wb97x
 ----------------

 -----------------------
 tmpdir/M3_conf_0_71.gjf
 -----------------------
 Symbolic Z-matrix:
 Charge =  0 Multiplicity = 1

                         Standard orientation:
 ---------------------------------------------------------------------
 Center     Atomic      Atomic             Coordinates (Angstroms)
 Number     Number       Type             X           Y           Z
 ---------------------------------------------------------------------
      1          7           0       -2.294535   -0.032956   -0.020739
      2          6           0       -0.926035   -0.047059    0.009234
      3          6           0       -0.194341   -1.234189   -0.006805
      4          6           0       -0.274372    1.183993    0.011987
      5          1           0       -0.696118   -2.187643   -0.019239
      6          6           0        1.201829   -1.183344   -0.007132
      7          1           0       -0.844631    2.110447    0.026933
      8          6           0        1.113244    1.216365    0.005795
      9          6           0        1.876853    0.055871   -0.000228
     10          1           0        1.622094    2.178019    0.009263
     11          1           0       -2.900277   -0.715198    0.275049
     12          1           0       -2.704622    0.869503   -0.209119
     13          1           0        1.835160   -2.085274   -0.013889
     14          1           0        2.967066    0.111017   -0.000931
 ---------------------------------------------------------------------

 SCF Done:  E(RwB97X) =  -287.511732788     A.U. after   14 cycles

 The electronic state is 1-A.
 Alpha  occ. eigenvalues --  -14.40453 -10.30648 -10.26869 -10.26292 -10.25688
 Alpha  occ. eigenvalues --  -10.25555 -10.25279  -1.04887  -0.95715  -0.86270
 Alpha  occ. eigenvalues --   -0.84444  -0.72594  -0.71218  -0.63865  -0.61986
 Alpha  occ. eigenvalues --   -0.58290  -0.52947  -0.52841  -0.51561  -0.48644
 Alpha  occ. eigenvalues --   -0.44981  -0.42971  -0.40237  -0.33167  -0.27864
 Alpha virt. eigenvalues --    0.09444   0.11364   0.18692   0.20233   0.22948
 Alpha virt. eigenvalues --    0.26345   0.27126   0.28578   0.29699   0.30730
 Alpha virt. eigenvalues --    0.37222   0.40880   0.42685   0.45846   0.47437

 Mulliken charges:
               1
     1  N   -0.845111
     2  C    0.348826
     3  C   -0.205445
     4  C   -0.222358
     5  H    0.147459
     6  C   -0.167001
     7  H    0.143302
     8  C   -0.157979
     9  C   -0.176339
    10  H    0.150109
    11  H    0.341561
    12  H    0.338122
    13  H    0.154241
    14  H    0.150614
 Sum of Mulliken charges =  -0.00000

 Dipole moment (field-independent basis, Debye):
    X=             -1.6988    Y=              0.1419    Z=              0.2590  Tot=              1.7243
 Quadrupole moment (field-independent basis, Debye-Ang):
   XX=            -32.1407   YY=            -36.2218   ZZ=            -45.5744
   XY=             -0.3624   XZ=             -0.8497   YZ=             -0.8018

 Normal termination of Gaussian 16 at Fri Sep 22 11:11:44 2023.
