 Gaussian 16, Revision A.03,
 Gaussian 16:  ES64L-G16RevA.03 25-Dec-2016

 ----------------
 # 6-31g(d) wb97x
 ----------------

 -----------------------
 tmpdir/M3_conf_0_59.gjf
 -----------------------
 Symbolic Z-matrix:
 Charge =  0 Multiplicity = 1

                         Standard orientation:
 ---------------------------------------------------------------------
 Center     Atomic      Atomic             Coordinates (Angstroms)
 Number     Number       Type             X           Y           Z
 ---------------------------------------------------------------------
      1          7           0        0.742492   -0.006507   -0.115595
      2          6           0       -0.703450   -0.006912    0.011300
      3          1           0       -1.082776    0.972518   -0.310469
      4          1           0        1.156297    0.841596    0.270762
      5          1           0        1.162717   -0.828183    0.320632
      6          1           0       -1.025081   -0.124962    1.064997
      7          1           0       -1.187901   -0.773951   -0.604552
 ---------------------------------------------------------------------

 SCF Done:  E(RwB97X) =  -95.8212920604     A.U. after   12 cycles

 The electronic state is 1-A.
 Alpha  occ. eigenvalues --  -14.38094 -10.28029  -0.99382  -0.77532  -0.59790
 Alpha  occ. eigenvalues --   -0.53737  -0.50941  -0.46637  -0.32188
 Alpha virt. eigenvalues --    0.18462   0.24003   0.24906   0.28025   0.29413
 Alpha virt. eigenvalues --    0.34500   0.66192   0.67073   0.70006   0.84950
 Alpha virt. eigenvalues --    0.87689   0.90314   0.97808   1.02950   1.04018

 Mulliken charges:
               1
     1  N   -0.742830
     2  C   -0.326143
     3  H    0.159291
     4  H    0.309260
     5  H    0.307893
     6  H    0.127732
     7  H    0.164796
 Sum of Mulliken charges =  -0.00000

 Dipole moment (field-independent basis, Debye):
    X=             -0.1326    Y=              0.0899    Z=              1.3618  Tot=              1.3712
 Quadrupole moment (field-independent basis, Debye-Ang):
   XX=            -13.4090   YY=            -12.2501   ZZ=            -15.2712
   XY=              0.0417   XZ=              2.0773   YZ=             -0.0060

 Normal termination of Gaussian 16 at Fri Sep 22 11:11:11 2023.
