 Gaussian 16, Revision A.03,
 Gaussian 16:  ES64L-G16RevA.03 25-Dec-2016

 ----------------
 # 6-31g(d) wb97x
 ----------------

 -----------------------
 tmpdir/M3_conf_1_65.gjf
 -----------------------
 Symbolic Z-matrix:
 Charge =  0 Multiplicity = 1

                         Standard orientation:
 ---------------------------------------------------------------------
 Center     Atomic      Atomic             Coordinates (Angstroms)
 Number     Number       Type             X           Y           Z
 ---------------------------------------------------------------------
      1          6           0        0.538013   -0.003010   -0.001998
      2          8           0       -0.683484   -0.001699    0.000484
      3          1           0        1.100695    0.927820    0.003972
      4          1           0        1.139099   -0.896167    0.004145
 ---------------------------------------------------------------------

 SCF Done:  E(RwB97X) =  -114.465196576     A.U. after   14 cycles

 The electronic state is 1-A.
 Alpha  occ. eigenvalues --  -19.23480 -10.36780  -1.17549  -0.76700  -0.60996
 Alpha  occ. eigenvalues --   -0.55545  -0.49917  -0.37006
 Alpha virt. eigenvalues --    0.05569   0.20968   0.28876   0.31519   0.61906
 Alpha virt. eigenvalues --    0.72471   0.72985   0.79544   0.94890   0.95972
 Alpha virt. eigenvalues --    1.02232   1.07672   1.17412   1.48430   1.61117

 Mulliken charges:
               1
     1  C    0.058970
     2  O   -0.340341
     3  H    0.137843
     4  H    0.143527
 Sum of Mulliken charges =  -0.00000

 Dipole moment (field-independent basis, Debye):
    X=              2.4061    Y=             -0.0190    Z=              0.0004  Tot=              2.4062
 Quadrupole moment (field-independent basis, Debye-Ang):
   XX=            -11.7458   YY=            -11.4374   ZZ=            -11.4021
   XY=             -0.0556   XZ=              0.0037   YZ=              0.0002

 Normal termination of Gaussian 16 at Fri Sep 22 11:13:06 2023.
