 Gaussian 16, Revision A.03,
 Gaussian 16:  ES64L-G16RevA.03 25-Dec-2016

 ----------------
 # 6-31g(d) wb97x
 ----------------

 -----------------------
 tmpdir/M3_conf_2_30.gjf
 -----------------------
 Symbolic Z-matrix:
 Charge =  0 Multiplicity = 1

                         Standard orientation:
 ---------------------------------------------------------------------
 Center     Atomic      Atomic             Coordinates (Angstroms)
 Number     Number       Type             X           Y           Z
 ---------------------------------------------------------------------
      1          1           0        0.665524   -0.331395   -0.820444
      2          6           0       -0.003597   -0.000843   -0.002444
      3          1           0        0.291159   -0.549074    0.898928
      4          1           0       -1.103408   -0.181925   -0.231956
      5          1           0        0.168310    1.067453    0.168135
 ---------------------------------------------------------------------

 SCF Done:  E(RwB97X) =  -40.4977555634     A.U. after   11 cycles

 The electronic state is 1-A.
 Alpha  occ. eigenvalues --  -10.25573  -0.81334  -0.49519  -0.49278  -0.48817
 Alpha virt. eigenvalues --    0.21156   0.26615   0.27092   0.27482   0.63920
 Alpha virt. eigenvalues --    0.64044   0.65673   0.99084   1.00740   1.01545
 Alpha virt. eigenvalues --    1.05652   1.20316   1.75950   1.76262   2.29782

 Mulliken charges:
               1
     1  H    0.165346
     2  C   -0.660510
     3  H    0.167579
     4  H    0.159816
     5  H    0.167768
 Sum of Mulliken charges =  -0.00000

 Dipole moment (field-independent basis, Debye):
    X=              0.0472    Y=              0.0139    Z=              0.0280  Tot=              0.0566
 Quadrupole moment (field-independent basis, Debye-Ang):
   XX=             -8.1468   YY=             -8.3431   ZZ=             -8.3884
   XY=             -0.0088   XZ=             -0.0058   YZ=             -0.0077

 Normal termination of Gaussian 16 at Fri Sep 22 11:14:27 2023.
