 Gaussian 16, Revision A.03,
 Gaussian 16:  ES64L-G16RevA.03 25-Dec-2016

 ----------------
 # 6-31g(d) wb97x
 ----------------

 -----------------------
 tmpdir/M3_conf_2_40.gjf
 -----------------------
 Symbolic Z-matrix:
 Charge =  0 Multiplicity = 1

                         Standard orientation:
 ---------------------------------------------------------------------
 Center     Atomic      Atomic             Coordinates (Angstroms)
 Number     Number       Type             X           Y           Z
 ---------------------------------------------------------------------
      1          1           0        1.153407   -0.792397    0.643864
      2          6           0        0.760723    0.000363   -0.003934
      3          6           0       -0.760452   -0.000778    0.005369
      4          1           0        1.150535    1.007161    0.370456
      5          1           0        1.104061   -0.207154   -1.037505
      6          1           0       -1.130030   -0.951663   -0.393805
      7          1           0       -1.116433    0.091357    1.049721
      8          1           0       -1.163168    0.855189   -0.641344
 ---------------------------------------------------------------------

 SCF Done:  E(RwB97X) =  -79.7971848845     A.U. after   11 cycles

 The electronic state is 1-A.
 Alpha  occ. eigenvalues --  -10.26092 -10.26074  -0.87878  -0.72438  -0.54423
 Alpha  occ. eigenvalues --   -0.54052  -0.46047  -0.43937  -0.43710
 Alpha virt. eigenvalues --    0.19224   0.25106   0.25316   0.25904   0.28154
 Alpha virt. eigenvalues --    0.28336   0.33638   0.61338   0.66063   0.66265
 Alpha virt. eigenvalues --    0.73716   0.74851   0.78885   0.97357   0.98832

 Mulliken charges:
               1
     1  H    0.157361
     2  C   -0.457843
     3  C   -0.457736
     4  H    0.146532
     5  H    0.154038
     6  H    0.157054
     7  H    0.154503
     8  H    0.146091
 Sum of Mulliken charges =  -0.00000

 Dipole moment (field-independent basis, Debye):
    X=              0.0002    Y=             -0.0805    Z=              0.0120  Tot=              0.0814
 Quadrupole moment (field-independent basis, Debye-Ang):
   XX=            -15.7220   YY=            -14.6740   ZZ=            -14.6679
   XY=             -0.0219   XZ=              0.0685   YZ=              0.0096

 Normal termination of Gaussian 16 at Fri Sep 22 11:14:26 2023.
