 Gaussian 16, Revision A.03,
 Gaussian 16:  ES64L-G16RevA.03 25-Dec-2016

 ----------------
 # 6-31g(d) wb97x
 ----------------

 -----------------------
 tmpdir/M3_conf_0_67.gjf
 -----------------------
 Symbolic Z-matrix:
 Charge =  0 Multiplicity = 1

                         Standard orientation:
 ---------------------------------------------------------------------
 Center     Atomic      Atomic             Coordinates (Angstroms)
 Number     Number       Type             X           Y           Z
 ---------------------------------------------------------------------
      1          6           0        0.542595    0.267113    0.090239
      2          6           0        2.027530    0.488043    0.153199
      3          8           0        2.744825   -0.415038   -0.249888
      4          6           0       -0.388865    1.303880   -0.005178
      5          6           0        0.090887   -1.051954    0.100097
      6          6           0       -1.747774    1.023755   -0.076283
      7          1           0       -0.059310    2.339292   -0.066014
      8          6           0       -1.269180   -1.327497    0.044753
      9          1           0        0.823854   -1.851467    0.160073
     10          6           0       -2.203291   -0.295446   -0.047951
     11          1           0       -2.477107    1.826176   -0.150795
     12          1           0       -1.611572   -2.360260    0.072813
     13          1           0        2.327738    1.434819    0.568600
     14          1           0       -3.273615   -0.515614   -0.138829
 ---------------------------------------------------------------------

 SCF Done:  E(RwB97X) =  -345.469345158     A.U. after   16 cycles

 The electronic state is 1-A.
 Alpha  occ. eigenvalues --  -19.22053 -10.36668 -10.29055 -10.28883 -10.28608
 Alpha  occ. eigenvalues --  -10.28493 -10.28281 -10.28201  -1.17078  -0.99849
 Alpha  occ. eigenvalues --   -0.89666  -0.88403  -0.77645  -0.73603  -0.69823
 Alpha  occ. eigenvalues --   -0.64342  -0.59447  -0.56982  -0.54782  -0.54402
 Alpha  occ. eigenvalues --   -0.53458  -0.51185  -0.47409  -0.46606  -0.44785
 Alpha  occ. eigenvalues --   -0.36466  -0.35258  -0.34694
 Alpha virt. eigenvalues --    0.02534   0.07611   0.12371   0.18475   0.21843
 Alpha virt. eigenvalues --    0.24687   0.25255   0.26318   0.28275   0.28696
 Alpha virt. eigenvalues --    0.34704   0.36527   0.39524   0.40288   0.43274

 Mulliken charges:
               1
     1  C    0.017832
     2  C    0.202223
     3  O   -0.392104
     4  C   -0.191567
     5  C   -0.167872
     6  C   -0.164916
     7  H    0.164625
     8  C   -0.165718
     9  H    0.191691
    10  C   -0.149597
    11  H    0.166770
    12  H    0.167875
    13  H    0.149253
    14  H    0.171505
 Sum of Mulliken charges =  -0.00000

 Dipole moment (field-independent basis, Debye):
    X=             -2.3450    Y=              1.3972    Z=              0.6933  Tot=              2.8164
 Quadrupole moment (field-independent basis, Debye-Ang):
   XX=            -48.1217   YY=            -39.9357   ZZ=            -48.1710
   XY=              4.0597   XZ=              2.5596   YZ=             -0.3937

 Normal termination of Gaussian 16 at Fri Sep 22 11:11:39 2023.
