 Gaussian 16, Revision A.03,
 Gaussian 16:  ES64L-G16RevA.03 25-Dec-2016

 ----------------
 # 6-31g(d) wb97x
 ----------------

 -----------------------
 tmpdir/M3_conf_1_49.gjf
 -----------------------
 Symbolic Z-matrix:
 Charge =  0 Multiplicity = 1

                         Standard orientation:
 ---------------------------------------------------------------------
 Center     Atomic      Atomic             Coordinates (Angstroms)
 Number     Number       Type             X           Y           Z
 ---------------------------------------------------------------------
      1          1           0        1.102623   -0.903037   -0.467339
      2          6           0        0.707899   -0.000047    0.011120
      3          7           0       -0.744606    0.001921   -0.113024
      4          1           0        1.135123    0.891829   -0.473101
      5          1           0        1.014512   -0.016587    1.074891
      6          1           0       -1.127600    0.850047    0.303864
      7          1           0       -1.159807   -0.835419    0.286138
 ---------------------------------------------------------------------

 SCF Done:  E(RwB97X) =  -95.8213133681     A.U. after   13 cycles

 The electronic state is 1-A.
 Alpha  occ. eigenvalues --  -14.37966 -10.28052  -0.99301  -0.77374  -0.60117
 Alpha  occ. eigenvalues --   -0.53458  -0.50536  -0.47088  -0.32102
 Alpha virt. eigenvalues --    0.18423   0.24216   0.25498   0.27586   0.29065
 Alpha virt. eigenvalues --    0.34063   0.66036   0.67694   0.69707   0.84785
 Alpha virt. eigenvalues --    0.87534   0.89453   0.97778   1.02491   1.04680

 Mulliken charges:
               1
     1  H    0.162719
     2  C   -0.327538
     3  N   -0.743896
     4  H    0.162871
     5  H    0.128418
     6  H    0.307472
     7  H    0.309954
 Sum of Mulliken charges =   0.00000

 Dipole moment (field-independent basis, Debye):
    X=              0.1664    Y=             -0.0154    Z=              1.3504  Tot=              1.3607
 Quadrupole moment (field-independent basis, Debye-Ang):
   XX=            -13.6033   YY=            -12.1128   ZZ=            -15.2752
   XY=              0.0788   XZ=             -2.0488   YZ=              0.0220

 Normal termination of Gaussian 16 at Fri Sep 22 11:12:41 2023.
