 Gaussian 16, Revision A.03,
 Gaussian 16:  ES64L-G16RevA.03 25-Dec-2016

 ----------------
 # 6-31g(d) wb97x
 ----------------

 ----------------------
 tmpdir/M3_conf_0_2.gjf
 ----------------------
 Symbolic Z-matrix:
 Charge =  0 Multiplicity = 1

                         Standard orientation:
 ---------------------------------------------------------------------
 Center     Atomic      Atomic             Coordinates (Angstroms)
 Number     Number       Type             X           Y           Z
 ---------------------------------------------------------------------
      1          6           0       -0.765151    0.000962   -0.005198
      2          6           0        0.764819    0.001599    0.004483
      3          1           0       -1.118176   -0.083022   -1.051030
      4          1           0       -1.134126   -0.871724    0.546697
      5          1           0       -1.164736    0.949298    0.496131
      6          1           0        1.133778   -0.894342   -0.509035
      7          1           0        1.117079   -0.041207    1.054647
      8          1           0        1.168173    0.925631   -0.533119
 ---------------------------------------------------------------------

 SCF Done:  E(RwB97X) =  -79.7972682660     A.U. after   12 cycles

 The electronic state is 1-A.
 Alpha  occ. eigenvalues --  -10.26150 -10.26131  -0.87712  -0.72489  -0.54352
 Alpha  occ. eigenvalues --   -0.53957  -0.45864  -0.44065  -0.43776
 Alpha virt. eigenvalues --    0.19235   0.25209   0.25269   0.25891   0.28113
 Alpha virt. eigenvalues --    0.28359   0.33324   0.61582   0.66017   0.66054
 Alpha virt. eigenvalues --    0.73923   0.74745   0.78391   0.97561   0.98987

 Mulliken charges:
               1
     1  C   -0.458432
     2  C   -0.458690
     3  H    0.155059
     4  H    0.157061
     5  H    0.146446
     6  H    0.156857
     7  H    0.154554
     8  H    0.147146
 Sum of Mulliken charges =   0.00000

 Dipole moment (field-independent basis, Debye):
    X=              0.0007    Y=             -0.0855    Z=              0.0008  Tot=              0.0855
 Quadrupole moment (field-independent basis, Debye-Ang):
   XX=            -15.7135   YY=            -14.6873   ZZ=            -14.6556
   XY=              0.0051   XZ=             -0.0512   YZ=             -0.0018

 Normal termination of Gaussian 16 at Fri Sep 22 11:10:32 2023.
