 Gaussian 16, Revision A.03,
 Gaussian 16:  ES64L-G16RevA.03 25-Dec-2016

 ----------------
 # 6-31g(d) wb97x
 ----------------

 -----------------------
 tmpdir/M3_conf_2_24.gjf
 -----------------------
 Symbolic Z-matrix:
 Charge =  0 Multiplicity = 1

                         Standard orientation:
 ---------------------------------------------------------------------
 Center     Atomic      Atomic             Coordinates (Angstroms)
 Number     Number       Type             X           Y           Z
 ---------------------------------------------------------------------
      1          6           0        0.002049    0.004123   -0.000216
      2          1           0       -0.660753    0.884062   -0.041272
      3          1           0        1.105477    0.282124   -0.014405
      4          1           0       -0.227562   -0.553419    0.914294
      5          1           0       -0.229453   -0.637503   -0.857321
 ---------------------------------------------------------------------

 SCF Done:  E(RwB97X) =  -40.4978980686     A.U. after   11 cycles

 The electronic state is 1-A.
 Alpha  occ. eigenvalues --  -10.25519  -0.81369  -0.49500  -0.49283  -0.48899
 Alpha virt. eigenvalues --    0.21192   0.26608   0.27258   0.27445   0.63905
 Alpha virt. eigenvalues --    0.64003   0.65604   0.99092   1.01125   1.01464
 Alpha virt. eigenvalues --    1.05786   1.20374   1.75942   1.76190   2.29981

 Mulliken charges:
               1
     1  C   -0.661007
     2  H    0.166852
     3  H    0.159379
     4  H    0.167385
     5  H    0.167392
 Sum of Mulliken charges =  -0.00000

 Dipole moment (field-independent basis, Debye):
    X=             -0.0451    Y=             -0.0329    Z=              0.0017  Tot=              0.0558
 Quadrupole moment (field-independent basis, Debye-Ang):
   XX=             -8.1548   YY=             -8.3608   ZZ=             -8.3528
   XY=             -0.0174   XZ=              0.0009   YZ=              0.0005

 Normal termination of Gaussian 16 at Fri Sep 22 11:14:20 2023.
