 Gaussian 16, Revision A.03,
 Gaussian 16:  ES64L-G16RevA.03 25-Dec-2016

 ----------------
 # 6-31g(d) wb97x
 ----------------

 -----------------------
 tmpdir/M3_conf_0_63.gjf
 -----------------------
 Symbolic Z-matrix:
 Charge =  0 Multiplicity = 1

                         Standard orientation:
 ---------------------------------------------------------------------
 Center     Atomic      Atomic             Coordinates (Angstroms)
 Number     Number       Type             X           Y           Z
 ---------------------------------------------------------------------
      1          1           0        2.742893    0.104682    1.055628
      2          6           0        2.419450   -0.010538    0.012167
      3          6           0        0.905201   -0.004075   -0.024353
      4          6           0        0.202719    1.201885   -0.011701
      5          6           0        0.187476   -1.200373   -0.018179
      6          1           0        0.763910    2.132692   -0.014331
      7          6           0       -1.186509    1.210527   -0.001079
      8          1           0        0.723225   -2.147672   -0.033208
      9          6           0       -1.201062   -1.195753    0.008338
     10          1           0       -1.708355    2.164403    0.045697
     11          6           0       -1.900960    0.010151    0.002594
     12          1           0       -1.765524   -2.123713    0.025774
     13          1           0        2.883202    0.841574   -0.588239
     14          1           0        2.789905   -0.999933   -0.321776
     15          1           0       -2.987149   -0.042972    0.023734
 ---------------------------------------------------------------------

 SCF Done:  E(RwB97X) =  -271.484337645     A.U. after   13 cycles

 The electronic state is 1-A.
 Alpha  occ. eigenvalues --  -10.27768 -10.27103 -10.27020 -10.26823 -10.26730
 Alpha  occ. eigenvalues --  -10.26586 -10.26559  -0.98387  -0.89533  -0.86793
 Alpha  occ. eigenvalues --   -0.80338  -0.71987  -0.69577  -0.62013  -0.56307
 Alpha  occ. eigenvalues --   -0.55905  -0.52370  -0.52067  -0.50591  -0.48473
 Alpha  occ. eigenvalues --   -0.45979  -0.43517  -0.43044  -0.33699  -0.32509
 Alpha virt. eigenvalues --    0.08896   0.09054   0.18747   0.21375   0.23241
 Alpha virt. eigenvalues --    0.24681   0.26177   0.27281   0.28693   0.29503
 Alpha virt. eigenvalues --    0.30848   0.33591   0.40705   0.41943   0.43248

 Mulliken charges:
               1
     1  H    0.179581
     2  C   -0.536932
     3  C    0.130332
     4  C   -0.193885
     5  C   -0.198529
     6  H    0.150790
     7  C   -0.160344
     8  H    0.148839
     9  C   -0.156577
    10  H    0.157621
    11  C   -0.165012
    12  H    0.157518
    13  H    0.162947
    14  H    0.165519
    15  H    0.158133
 Sum of Mulliken charges =  -0.00000

 Dipole moment (field-independent basis, Debye):
    X=              0.2811    Y=             -0.0112    Z=              0.1332  Tot=              0.3113
 Quadrupole moment (field-independent basis, Debye-Ang):
   XX=            -37.7133   YY=            -37.8598   ZZ=            -45.1312
   XY=              0.2567   XZ=              0.0340   YZ=              0.0049

 Normal termination of Gaussian 16 at Fri Sep 22 11:11:51 2023.
