 Gaussian 16, Revision A.03,
 Gaussian 16:  ES64L-G16RevA.03 25-Dec-2016

 ----------------
 # 6-31g(d) wb97x
 ----------------

 -----------------------
 tmpdir/M3_conf_1_15.gjf
 -----------------------
 Symbolic Z-matrix:
 Charge =  0 Multiplicity = 1

                         Standard orientation:
 ---------------------------------------------------------------------
 Center     Atomic      Atomic             Coordinates (Angstroms)
 Number     Number       Type             X           Y           Z
 ---------------------------------------------------------------------
      1          6           0        1.273273   -0.224902   -0.035104
      2          6           0       -0.048579    0.522290    0.066327
      3          7           0       -1.232979   -0.299067   -0.122144
      4          1           0        1.387985   -0.614717   -1.064831
      5          1           0        2.100938    0.468072    0.157455
      6          1           0        1.311804   -1.068231    0.737972
      7          1           0       -0.086300    1.303911   -0.701901
      8          1           0       -0.105648    1.017878    1.056232
      9          1           0       -2.080064    0.256156   -0.077851
     10          1           0       -1.246026   -1.053927    0.560598
 ---------------------------------------------------------------------

 SCF Done:  E(RwB97X) =  -135.126051291     A.U. after   13 cycles

 The electronic state is 1-A.
 Alpha  occ. eigenvalues --  -14.37757 -10.28442 -10.26131  -1.00017  -0.85138
 Alpha  occ. eigenvalues --   -0.71407  -0.59969  -0.56452  -0.52678  -0.46909
 Alpha  occ. eigenvalues --   -0.46064  -0.44164  -0.32012
 Alpha virt. eigenvalues --    0.17970   0.22323   0.23639   0.26117   0.27037
 Alpha virt. eigenvalues --    0.28571   0.29653   0.33222   0.36804   0.63481
 Alpha virt. eigenvalues --    0.65617   0.68006   0.69713   0.78915   0.79445

 Mulliken charges:
               1
     1  C   -0.463595
     2  C   -0.140129
     3  N   -0.742601
     4  H    0.169017
     5  H    0.158956
     6  H    0.137867
     7  H    0.150573
     8  H    0.118041
     9  H    0.311201
    10  H    0.300669
 Sum of Mulliken charges =  -0.00000

 Dipole moment (field-independent basis, Debye):
    X=             -0.1753    Y=              0.5344    Z=              1.1574  Tot=              1.2868
 Quadrupole moment (field-independent basis, Debye-Ang):
   XX=            -18.9754   YY=            -20.2824   ZZ=            -21.2919
   XY=             -0.6795   XZ=             -1.7555   YZ=             -1.7903

 Normal termination of Gaussian 16 at Fri Sep 22 11:12:32 2023.
