 Gaussian 16, Revision A.03,
 Gaussian 16:  ES64L-G16RevA.03 25-Dec-2016

 ----------------
 # 6-31g(d) wb97x
 ----------------

 -----------------------
 tmpdir/M3_conf_1_86.gjf
 -----------------------
 Symbolic Z-matrix:
 Charge =  0 Multiplicity = 1

                         Standard orientation:
 ---------------------------------------------------------------------
 Center     Atomic      Atomic             Coordinates (Angstroms)
 Number     Number       Type             X           Y           Z
 ---------------------------------------------------------------------
      1          7           0        0.007848   -0.022142   -0.000516
      2          1           0       -0.251768    0.954127    0.001003
      3          1           0        0.970217   -0.215992    0.001318
      4          1           0       -0.773387   -0.583141    0.001290
 ---------------------------------------------------------------------

 SCF Done:  E(RwB97X) =  -56.5139326802     A.U. after   10 cycles

 The electronic state is 1-A.
 Alpha  occ. eigenvalues --  -14.35820  -0.95514  -0.60680  -0.55759  -0.32370
 Alpha virt. eigenvalues --    0.19850   0.28401   0.29917   0.77286   0.83763
 Alpha virt. eigenvalues --    0.88753   0.94616   1.05699   1.11170   1.21587
 Alpha virt. eigenvalues --    1.79855   1.82285   2.30127   2.37556   2.56960

 Mulliken charges:
               1
     1  N   -0.991155
     2  H    0.314295
     3  H    0.340356
     4  H    0.336504
 Sum of Mulliken charges =  -0.00000

 Dipole moment (field-independent basis, Debye):
    X=             -0.0603    Y=              0.1765    Z=              0.0104  Tot=              0.1868
 Quadrupole moment (field-independent basis, Debye-Ang):
   XX=             -5.0496   YY=             -5.8745   ZZ=             -9.2418
   XY=              0.0424   XZ=              0.0001   YZ=             -0.0005

 Normal termination of Gaussian 16 at Fri Sep 22 11:13:40 2023.
