 Gaussian 16, Revision A.03,
 Gaussian 16:  ES64L-G16RevA.03 25-Dec-2016

 ----------------
 # 6-31g(d) wb97x
 ----------------

 ----------------------
 tmpdir/M3_conf_2_1.gjf
 ----------------------
 Symbolic Z-matrix:
 Charge =  0 Multiplicity = 1

                         Standard orientation:
 ---------------------------------------------------------------------
 Center     Atomic      Atomic             Coordinates (Angstroms)
 Number     Number       Type             X           Y           Z
 ---------------------------------------------------------------------
      1          6           0        0.000965    0.001885   -0.001503
      2          1           0        0.156187   -0.487332    0.967798
      3          1           0        0.619716   -0.525851   -0.752570
      4          1           0        0.329900    1.051452    0.059665
      5          1           0       -1.111596   -0.049576   -0.265877
 ---------------------------------------------------------------------

 SCF Done:  E(RwB97X) =  -40.4976179650     A.U. after   11 cycles

 The electronic state is 1-A.
 Alpha  occ. eigenvalues --  -10.25726  -0.81224  -0.49472  -0.49240  -0.48737
 Alpha virt. eigenvalues --    0.21073   0.26366   0.27102   0.27402   0.64017
 Alpha virt. eigenvalues --    0.64253   0.65635   0.98654   1.00767   1.01366
 Alpha virt. eigenvalues --    1.04963   1.20187   1.76022   1.76280   2.29701

 Mulliken charges:
               1
     1  C   -0.658506
     2  H    0.167802
     3  H    0.165943
     4  H    0.167575
     5  H    0.157186
 Sum of Mulliken charges =   0.00000

 Dipole moment (field-independent basis, Debye):
    X=              0.0381    Y=             -0.0048    Z=              0.0254  Tot=              0.0461
 Quadrupole moment (field-independent basis, Debye-Ang):
   XX=             -8.2173   YY=             -8.3066   ZZ=             -8.3817
   XY=             -0.0005   XZ=             -0.0182   YZ=             -0.0077

 Normal termination of Gaussian 16 at Fri Sep 22 11:14:12 2023.
