 Gaussian 16, Revision A.03,
 Gaussian 16:  ES64L-G16RevA.03 25-Dec-2016

 ----------------
 # 6-31g(d) wb97x
 ----------------

 -----------------------
 tmpdir/M3_conf_2_34.gjf
 -----------------------
 Symbolic Z-matrix:
 Charge =  0 Multiplicity = 1

                         Standard orientation:
 ---------------------------------------------------------------------
 Center     Atomic      Atomic             Coordinates (Angstroms)
 Number     Number       Type             X           Y           Z
 ---------------------------------------------------------------------
      1          6           0       -0.000728    0.002324   -0.001935
      2          1           0       -0.570086   -0.511108   -0.792974
      3          1           0        1.118310    0.011291   -0.233079
      4          1           0       -0.162788   -0.544429    0.934602
      5          1           0       -0.381070    1.030305    0.103064
 ---------------------------------------------------------------------

 SCF Done:  E(RwB97X) =  -40.4977966056     A.U. after   11 cycles

 The electronic state is 1-A.
 Alpha  occ. eigenvalues --  -10.25636  -0.81285  -0.49479  -0.49303  -0.48773
 Alpha virt. eigenvalues --    0.21129   0.26430   0.27224   0.27411   0.63943
 Alpha virt. eigenvalues --    0.64207   0.65573   0.98794   1.01037   1.01397
 Alpha virt. eigenvalues --    1.05256   1.20257   1.75988   1.76240   2.29946

 Mulliken charges:
               1
     1  C   -0.659496
     2  H    0.166965
     3  H    0.157558
     4  H    0.167471
     5  H    0.167502
 Sum of Mulliken charges =  -0.00000

 Dipole moment (field-independent basis, Debye):
    X=             -0.0404    Y=             -0.0116    Z=              0.0215  Tot=              0.0472
 Quadrupole moment (field-independent basis, Debye-Ang):
   XX=             -8.2091   YY=             -8.2982   ZZ=             -8.3821
   XY=             -0.0020   XZ=              0.0191   YZ=             -0.0019

 Normal termination of Gaussian 16 at Fri Sep 22 11:14:25 2023.
