 Gaussian 16, Revision A.03,
 Gaussian 16:  ES64L-G16RevA.03 25-Dec-2016

 ----------------
 # 6-31g(d) wb97x
 ----------------

 ----------------------
 tmpdir/M3_conf_1_7.gjf
 ----------------------
 Symbolic Z-matrix:
 Charge =  0 Multiplicity = 1

                         Standard orientation:
 ---------------------------------------------------------------------
 Center     Atomic      Atomic             Coordinates (Angstroms)
 Number     Number       Type             X           Y           Z
 ---------------------------------------------------------------------
      1          1           0       -1.122087   -0.876575    0.543661
      2          6           0       -0.761058    0.001220   -0.005380
      3          6           0        0.760712    0.002104    0.004206
      4          1           0       -1.117850   -0.079817   -1.050172
      5          1           0       -1.164703    0.944535    0.502129
      6          1           0        1.129828   -0.891191   -0.513781
      7          1           0        1.113006   -0.045682    1.054150
      8          1           0        1.163878    0.928782   -0.528945
 ---------------------------------------------------------------------

 SCF Done:  E(RwB97X) =  -79.7971878520     A.U. after   12 cycles

 The electronic state is 1-A.
 Alpha  occ. eigenvalues --  -10.26091 -10.26071  -0.87882  -0.72421  -0.54442
 Alpha  occ. eigenvalues --   -0.54048  -0.45984  -0.44000  -0.43699
 Alpha virt. eigenvalues --    0.19225   0.25212   0.25288   0.25835   0.28124
 Alpha virt. eigenvalues --    0.28376   0.33585   0.61331   0.66142   0.66193
 Alpha virt. eigenvalues --    0.73894   0.74644   0.78849   0.97527   0.98849

 Mulliken charges:
               1
     1  H    0.156624
     2  C   -0.457699
     3  C   -0.457960
     4  H    0.154913
     5  H    0.146324
     6  H    0.156683
     7  H    0.154342
     8  H    0.146774
 Sum of Mulliken charges =   0.00000

 Dipole moment (field-independent basis, Debye):
    X=              0.0007    Y=             -0.0871    Z=              0.0012  Tot=              0.0871
 Quadrupole moment (field-independent basis, Debye-Ang):
   XX=            -15.7371   YY=            -14.6830   ZZ=            -14.6495
   XY=             -0.0066   XZ=             -0.0444   YZ=             -0.0008

 Normal termination of Gaussian 16 at Fri Sep 22 11:12:29 2023.
