 Gaussian 16, Revision A.03,
 Gaussian 16:  ES64L-G16RevA.03 25-Dec-2016

 ----------------
 # 6-31g(d) wb97x
 ----------------

 -----------------------
 tmpdir/M3_conf_2_64.gjf
 -----------------------
 Symbolic Z-matrix:
 Charge =  0 Multiplicity = 1

                         Standard orientation:
 ---------------------------------------------------------------------
 Center     Atomic      Atomic             Coordinates (Angstroms)
 Number     Number       Type             X           Y           Z
 ---------------------------------------------------------------------
      1          6           0        0.533438    0.255857    0.087286
      2          6           0        2.027634    0.466409    0.148519
      3          6           0       -0.390290    1.299911   -0.003796
      4          6           0        0.071757   -1.059776    0.094288
      5          6           0       -1.751408    1.030289   -0.073235
      6          1           0       -0.052991    2.332950   -0.062516
      7          6           0       -1.290456   -1.324839    0.040605
      8          1           0        0.798744   -1.864978    0.150733
      9          6           0       -2.216877   -0.285477   -0.047566
     10          1           0       -2.474756    1.838407   -0.144381
     11          1           0       -1.640621   -2.355054    0.066409
     12          8           0        2.802510   -0.394751   -0.239464
     13          1           0        2.335745    1.409722    0.566008
     14          1           0       -3.288996   -0.497282   -0.137153
 ---------------------------------------------------------------------

 SCF Done:  E(RwB97X) =  -345.471663409     A.U. after   15 cycles

 The electronic state is 1-A.
 Alpha  occ. eigenvalues --  -19.22062 -10.36640 -10.29236 -10.29033 -10.28913
 Alpha  occ. eigenvalues --  -10.28643 -10.28445 -10.28391  -1.16932  -1.00021
 Alpha  occ. eigenvalues --   -0.89805  -0.88562  -0.77583  -0.73729  -0.69836
 Alpha  occ. eigenvalues --   -0.64354  -0.59438  -0.57144  -0.54875  -0.54308
 Alpha  occ. eigenvalues --   -0.53627  -0.51147  -0.47514  -0.46808  -0.44946
 Alpha  occ. eigenvalues --   -0.36364  -0.35395  -0.34969
 Alpha virt. eigenvalues --    0.02490   0.07464   0.12374   0.18348   0.22016
 Alpha virt. eigenvalues --    0.24683   0.25197   0.26121   0.28107   0.28580
 Alpha virt. eigenvalues --    0.35208   0.35873   0.39420   0.40240   0.43169

 Mulliken charges:
               1
     1  C    0.019575
     2  C    0.200665
     3  C   -0.190691
     4  C   -0.170063
     5  C   -0.164988
     6  H    0.166895
     7  C   -0.165256
     8  H    0.191406
     9  C   -0.149286
    10  H    0.167987
    11  H    0.168716
    12  O   -0.390126
    13  H    0.142712
    14  H    0.172455
 Sum of Mulliken charges =  -0.00000

 Dipole moment (field-independent basis, Debye):
    X=             -2.5536    Y=              1.3151    Z=              0.6565  Tot=              2.9464
 Quadrupole moment (field-independent basis, Debye-Ang):
   XX=            -48.6468   YY=            -39.9651   ZZ=            -48.1905
   XY=              3.8376   XZ=              2.4645   YZ=             -0.4159

 Normal termination of Gaussian 16 at Fri Sep 22 11:14:52 2023.
