 Gaussian 16, Revision A.03,
 Gaussian 16:  ES64L-G16RevA.03 25-Dec-2016

 ----------------
 # 6-31g(d) wb97x
 ----------------

 -----------------------
 tmpdir/M3_conf_2_43.gjf
 -----------------------
 Symbolic Z-matrix:
 Charge =  0 Multiplicity = 1

                         Standard orientation:
 ---------------------------------------------------------------------
 Center     Atomic      Atomic             Coordinates (Angstroms)
 Number     Number       Type             X           Y           Z
 ---------------------------------------------------------------------
      1          6           0       -0.001315    0.002446   -0.000701
      2          1           0       -0.580687   -0.586701   -0.738873
      3          1           0       -0.352309    1.045970   -0.017256
      4          1           0       -0.179632   -0.429871    0.989968
      5          1           0        1.120517   -0.044073   -0.229634
 ---------------------------------------------------------------------

 SCF Done:  E(RwB97X) =  -40.4975806021     A.U. after   11 cycles

 The electronic state is 1-A.
 Alpha  occ. eigenvalues --  -10.25730  -0.81222  -0.49516  -0.49163  -0.48768
 Alpha virt. eigenvalues --    0.21068   0.26340   0.27092   0.27433   0.63998
 Alpha virt. eigenvalues --    0.64272   0.65635   0.98592   1.00730   1.01436
 Alpha virt. eigenvalues --    1.04970   1.20194   1.76041   1.76247   2.29669

 Mulliken charges:
               1
     1  C   -0.658396
     2  H    0.165526
     3  H    0.167872
     4  H    0.168260
     5  H    0.156738
 Sum of Mulliken charges =  -0.00000

 Dipole moment (field-independent basis, Debye):
    X=             -0.0389    Y=             -0.0058    Z=              0.0232  Tot=              0.0457
 Quadrupole moment (field-independent basis, Debye-Ang):
   XX=             -8.2290   YY=             -8.3014   ZZ=             -8.3759
   XY=             -0.0016   XZ=              0.0142   YZ=             -0.0110

 Normal termination of Gaussian 16 at Fri Sep 22 11:14:33 2023.
