 Gaussian 16, Revision A.03,
 Gaussian 16:  ES64L-G16RevA.03 25-Dec-2016

 ----------------
 # 6-31g(d) wb97x
 ----------------

 -----------------------
 tmpdir/M3_conf_0_31.gjf
 -----------------------
 Symbolic Z-matrix:
 Charge =  0 Multiplicity = 1

                         Standard orientation:
 ---------------------------------------------------------------------
 Center     Atomic      Atomic             Coordinates (Angstroms)
 Number     Number       Type             X           Y           Z
 ---------------------------------------------------------------------
      1          1           0       -0.675222   -0.458587   -0.749283
      2          6           0        0.002960   -0.001615   -0.002718
      3          1           0       -0.255944   -0.414980    0.978104
      4          1           0        1.101571   -0.193552   -0.229142
      5          1           0       -0.188166    1.076810    0.016628
 ---------------------------------------------------------------------

 SCF Done:  E(RwB97X) =  -40.4977924911     A.U. after   11 cycles

 The electronic state is 1-A.
 Alpha  occ. eigenvalues --  -10.25573  -0.81333  -0.49464  -0.49297  -0.48854
 Alpha virt. eigenvalues --    0.21157   0.26610   0.27118   0.27463   0.63913
 Alpha virt. eigenvalues --    0.64062   0.65654   0.99084   1.00797   1.01502
 Alpha virt. eigenvalues --    1.05639   1.20326   1.75956   1.76236   2.29822

 Mulliken charges:
               1
     1  H    0.165543
     2  C   -0.660481
     3  H    0.167581
     4  H    0.159685
     5  H    0.167672
 Sum of Mulliken charges =   0.00000

 Dipole moment (field-independent basis, Debye):
    X=             -0.0449    Y=              0.0190    Z=              0.0281  Tot=              0.0562
 Quadrupole moment (field-independent basis, Debye-Ang):
   XX=             -8.1522   YY=             -8.3524   ZZ=             -8.3736
   XY=              0.0085   XZ=              0.0074   YZ=             -0.0091

 Normal termination of Gaussian 16 at Fri Sep 22 11:10:46 2023.
