 Gaussian 16, Revision A.03,
 Gaussian 16:  ES64L-G16RevA.03 25-Dec-2016

 ----------------
 # 6-31g(d) wb97x
 ----------------

 -----------------------
 tmpdir/M3_conf_2_57.gjf
 -----------------------
 Symbolic Z-matrix:
 Charge =  0 Multiplicity = 1

                         Standard orientation:
 ---------------------------------------------------------------------
 Center     Atomic      Atomic             Coordinates (Angstroms)
 Number     Number       Type             X           Y           Z
 ---------------------------------------------------------------------
      1          6           0        2.430682   -0.010488    0.012135
      2          6           0        0.902736   -0.004031   -0.024546
      3          6           0        0.200207    1.201902   -0.011819
      4          6           0        0.185058   -1.200360   -0.018299
      5          1           0        0.761361    2.132730   -0.014514
      6          6           0       -1.189028    1.210486   -0.001038
      7          1           0        0.720847   -2.147629   -0.033376
      8          6           0       -1.203475   -1.195793    0.008380
      9          1           0       -1.710907    2.164342    0.045795
     10          6           0       -1.903422    0.010075    0.002707
     11          1           0       -1.767893   -2.123784    0.025875
     12          1           0        2.895146    0.841653   -0.587678
     13          1           0        2.801914   -0.999777   -0.321259
     14          1           0        2.752591    0.104814    1.056066
     15          1           0       -2.989619   -0.043091    0.023968
 ---------------------------------------------------------------------

 SCF Done:  E(RwB97X) =  -271.484171968     A.U. after   13 cycles

 The electronic state is 1-A.
 Alpha  occ. eigenvalues --  -10.27870 -10.27205 -10.27029 -10.26833 -10.26744
 Alpha  occ. eigenvalues --  -10.26606 -10.26580  -0.98354  -0.89375  -0.86798
 Alpha  occ. eigenvalues --   -0.80323  -0.71965  -0.69605  -0.62023  -0.56239
 Alpha  occ. eigenvalues --   -0.55868  -0.52255  -0.52071  -0.50527  -0.48527
 Alpha  occ. eigenvalues --   -0.46018  -0.43459  -0.43037  -0.33705  -0.32557
 Alpha virt. eigenvalues --    0.08903   0.09054   0.18726   0.21349   0.23279
 Alpha virt. eigenvalues --    0.24719   0.26137   0.27268   0.28675   0.29474
 Alpha virt. eigenvalues --    0.30771   0.33278   0.40705   0.41922   0.43158

 Mulliken charges:
               1
     1  C   -0.535096
     2  C    0.127562
     3  C   -0.194025
     4  C   -0.198549
     5  H    0.151019
     6  C   -0.160251
     7  H    0.149035
     8  C   -0.156490
     9  H    0.157736
    10  C   -0.164943
    11  H    0.157628
    12  H    0.163069
    13  H    0.165687
    14  H    0.179375
    15  H    0.158243
 Sum of Mulliken charges =  -0.00000

 Dipole moment (field-independent basis, Debye):
    X=              0.2769    Y=             -0.0119    Z=              0.1326  Tot=              0.3072
 Quadrupole moment (field-independent basis, Debye-Ang):
   XX=            -37.6757   YY=            -37.8545   ZZ=            -45.1477
   XY=              0.2548   XZ=              0.0315   YZ=              0.0047

 Normal termination of Gaussian 16 at Fri Sep 22 11:14:48 2023.
