 Gaussian 16, Revision A.03,
 Gaussian 16:  ES64L-G16RevA.03 25-Dec-2016

 ----------------
 # 6-31g(d) wb97x
 ----------------

 -----------------------
 tmpdir/M3_conf_2_23.gjf
 -----------------------
 Symbolic Z-matrix:
 Charge =  0 Multiplicity = 1

                         Standard orientation:
 ---------------------------------------------------------------------
 Center     Atomic      Atomic             Coordinates (Angstroms)
 Number     Number       Type             X           Y           Z
 ---------------------------------------------------------------------
      1          6           0       -1.256544   -0.199883    0.021980
      2          7           0       -0.001613    0.500905   -0.152541
      3          6           0        1.256008   -0.208041    0.018696
      4          1           0       -1.385160   -0.601115    1.045989
      5          1           0       -1.314090   -1.036968   -0.682204
      6          1           0       -2.091491    0.477976   -0.186044
      7          1           0        0.062703    1.308248    0.463888
      8          1           0        1.281987   -1.053026   -0.679607
      9          1           0        1.353944   -0.615179    1.045273
     10          1           0        2.106613    0.461272   -0.183570
 ---------------------------------------------------------------------

 SCF Done:  E(RwB97X) =  -135.118453948     A.U. after   12 cycles

 The electronic state is 1-A.
 Alpha  occ. eigenvalues --  -14.38484 -10.28113 -10.28103  -1.01859  -0.82665
 Alpha  occ. eigenvalues --   -0.73886  -0.59384  -0.54587  -0.53740  -0.49082
 Alpha  occ. eigenvalues --   -0.47149  -0.45601  -0.30513
 Alpha virt. eigenvalues --    0.18165   0.23800   0.24925   0.25013   0.27030
 Alpha virt. eigenvalues --    0.28468   0.28960   0.31202   0.37187   0.60737
 Alpha virt. eigenvalues --    0.65327   0.68132   0.69956   0.70770   0.85098

 Mulliken charges:
               1
     1  C   -0.319152
     2  N   -0.555501
     3  C   -0.323066
     4  H    0.124129
     5  H    0.160434
     6  H    0.165999
     7  H    0.300860
     8  H    0.158184
     9  H    0.123785
    10  H    0.164327
 Sum of Mulliken charges =  -0.00000

 Dipole moment (field-independent basis, Debye):
    X=              0.0215    Y=             -0.0892    Z=              0.9744  Tot=              0.9787
 Quadrupole moment (field-independent basis, Debye-Ang):
   XX=            -19.2916   YY=            -19.9437   ZZ=            -21.6812
   XY=              0.1854   XZ=              0.0631   YZ=              1.9123

 Normal termination of Gaussian 16 at Fri Sep 22 11:14:27 2023.
