 Gaussian 16, Revision A.03,
 Gaussian 16:  ES64L-G16RevA.03 25-Dec-2016

 ----------------
 # 6-31g(d) wb97x
 ----------------

 -----------------------
 tmpdir/M3_conf_1_38.gjf
 -----------------------
 Symbolic Z-matrix:
 Charge =  0 Multiplicity = 1

                         Standard orientation:
 ---------------------------------------------------------------------
 Center     Atomic      Atomic             Coordinates (Angstroms)
 Number     Number       Type             X           Y           Z
 ---------------------------------------------------------------------
      1          7           0        1.226220   -0.299975   -0.120124
      2          6           0        0.050457    0.534875    0.064647
      3          6           0       -1.259333   -0.232339   -0.034718
      4          1           0        1.232199   -1.050718    0.567092
      5          1           0        2.079281    0.246338   -0.079825
      6          1           0        0.045981    1.313007   -0.707880
      7          1           0        0.063958    1.039223    1.051902
      8          1           0       -2.098657    0.447486    0.148317
      9          1           0       -1.365755   -0.636192   -1.060129
     10          1           0       -1.287293   -1.074540    0.741820
 ---------------------------------------------------------------------

 SCF Done:  E(RwB97X) =  -135.126944966     A.U. after   13 cycles

 The electronic state is 1-A.
 Alpha  occ. eigenvalues --  -14.37926 -10.28457 -10.25986  -1.00064  -0.85164
 Alpha  occ. eigenvalues --   -0.71358  -0.60008  -0.56568  -0.52790  -0.46785
 Alpha  occ. eigenvalues --   -0.45852  -0.44116  -0.32248
 Alpha virt. eigenvalues --    0.18037   0.22324   0.23533   0.26206   0.27111
 Alpha virt. eigenvalues --    0.28637   0.29655   0.33349   0.36539   0.63459
 Alpha virt. eigenvalues --    0.65825   0.68321   0.69549   0.78282   0.79343

 Mulliken charges:
               1
     1  N   -0.741108
     2  C   -0.140525
     3  C   -0.463142
     4  H    0.302485
     5  H    0.311713
     6  H    0.151134
     7  H    0.118241
     8  H    0.157328
     9  H    0.168122
    10  H    0.135751
 Sum of Mulliken charges =  -0.00000

 Dipole moment (field-independent basis, Debye):
    X=              0.2071    Y=              0.5330    Z=              1.1459  Tot=              1.2806
 Quadrupole moment (field-independent basis, Debye-Ang):
   XX=            -18.9930   YY=            -20.2775   ZZ=            -21.2883
   XY=              0.5728   XZ=              1.7234   YZ=             -1.7880

 Normal termination of Gaussian 16 at Fri Sep 22 11:12:41 2023.
