 Gaussian 16, Revision A.03,
 Gaussian 16:  ES64L-G16RevA.03 25-Dec-2016

 ----------------
 # 6-31g(d) wb97x
 ----------------

 -----------------------
 tmpdir/M3_conf_1_18.gjf
 -----------------------
 Symbolic Z-matrix:
 Charge =  0 Multiplicity = 1

                         Standard orientation:
 ---------------------------------------------------------------------
 Center     Atomic      Atomic             Coordinates (Angstroms)
 Number     Number       Type             X           Y           Z
 ---------------------------------------------------------------------
      1          1           0       -0.953124   -0.026296    1.088848
      2          6           0       -0.705339    0.000558    0.008731
      3          7           0        0.742657    0.002049   -0.118806
      4          1           0       -1.164865    0.895312   -0.440463
      5          1           0       -1.128487   -0.898994   -0.454181
      6          1           0        1.151243   -0.833324    0.284926
      7          1           0        1.128673    0.845613    0.300124
 ---------------------------------------------------------------------

 SCF Done:  E(RwB97X) =  -95.8200398873     A.U. after   13 cycles

 The electronic state is 1-A.
 Alpha  occ. eigenvalues --  -14.37859 -10.28079  -0.99479  -0.77359  -0.60137
 Alpha  occ. eigenvalues --   -0.53272  -0.50983  -0.47119  -0.31919
 Alpha virt. eigenvalues --    0.18405   0.24212   0.25425   0.27455   0.29195
 Alpha virt. eigenvalues --    0.34233   0.66084   0.67762   0.69565   0.84713
 Alpha virt. eigenvalues --    0.87904   0.88972   0.97958   1.02682   1.04745

 Mulliken charges:
               1
     1  H    0.126991
     2  C   -0.328850
     3  N   -0.742324
     4  H    0.163417
     5  H    0.163107
     6  H    0.310022
     7  H    0.307638
 Sum of Mulliken charges =  -0.00000

 Dipole moment (field-independent basis, Debye):
    X=             -0.1844    Y=             -0.0127    Z=              1.3746  Tot=              1.3870
 Quadrupole moment (field-independent basis, Debye-Ang):
   XX=            -13.5934   YY=            -12.1192   ZZ=            -15.3097
   XY=             -0.0755   XZ=              2.1376   YZ=              0.0203

 Normal termination of Gaussian 16 at Fri Sep 22 11:12:26 2023.
