 Gaussian 16, Revision A.03,
 Gaussian 16:  ES64L-G16RevA.03 25-Dec-2016

 ----------------
 # 6-31g(d) wb97x
 ----------------

 -----------------------
 tmpdir/M3_conf_1_85.gjf
 -----------------------
 Symbolic Z-matrix:
 Charge =  0 Multiplicity = 1

                         Standard orientation:
 ---------------------------------------------------------------------
 Center     Atomic      Atomic             Coordinates (Angstroms)
 Number     Number       Type             X           Y           Z
 ---------------------------------------------------------------------
      1          6           0        0.916817   -0.059368    0.000346
      2          7           0        2.321608   -0.041889    0.000712
      3          6           0        0.170744   -1.240581   -0.000151
      4          6           0        0.274411    1.197468   -0.001045
      5          6           0       -1.222268   -1.174478    0.006708
      6          1           0        0.674644   -2.192974   -0.006137
      7          6           0       -1.114569    1.221890   -0.004225
      8          6           0       -1.870890    0.058060    0.000950
      9          1           0       -1.621206    2.184733   -0.007317
     10          1           0       -2.957615    0.110232    0.008764
     11          1           0        2.756969    0.867559    0.032789
     12          1           0        2.985280   -0.737389   -0.028787
     13          1           0        0.844071    2.128637   -0.001128
     14          1           0       -1.858866   -2.085522   -0.018661
 ---------------------------------------------------------------------

 SCF Done:  E(RwB97X) =  -287.510498437     A.U. after   14 cycles

 The electronic state is 1-A.
 Alpha  occ. eigenvalues --  -14.40515 -10.31462 -10.26863 -10.26412 -10.26030
 Alpha  occ. eigenvalues --  -10.25809 -10.25134  -1.03717  -0.95885  -0.86379
 Alpha  occ. eigenvalues --   -0.84671  -0.72361  -0.71325  -0.63734  -0.61140
 Alpha  occ. eigenvalues --   -0.58210  -0.52935  -0.52551  -0.51650  -0.48765
 Alpha  occ. eigenvalues --   -0.44864  -0.43092  -0.40372  -0.33303  -0.27846
 Alpha virt. eigenvalues --    0.09377   0.11383   0.18724   0.19798   0.22883
 Alpha virt. eigenvalues --    0.26198   0.27301   0.28617   0.29240   0.30279
 Alpha virt. eigenvalues --    0.36442   0.40967   0.42418   0.45429   0.46348

 Mulliken charges:
               1
     1  C    0.348824
     2  N   -0.856843
     3  C   -0.205563
     4  C   -0.220689
     5  C   -0.163621
     6  H    0.148825
     7  C   -0.157785
     8  C   -0.173273
     9  H    0.151596
    10  H    0.149410
    11  H    0.334954
    12  H    0.341088
    13  H    0.147817
    14  H    0.155261
 Sum of Mulliken charges =  -0.00000

 Dipole moment (field-independent basis, Debye):
    X=              1.6817    Y=              0.1110    Z=             -0.0182  Tot=              1.6854
 Quadrupole moment (field-independent basis, Debye-Ang):
   XX=            -31.6999   YY=            -35.9679   ZZ=            -45.9252
   XY=              0.2214   XZ=             -0.0090   YZ=              0.1531

 Normal termination of Gaussian 16 at Fri Sep 22 11:13:39 2023.
