 Gaussian 16, Revision A.03,
 Gaussian 16:  ES64L-G16RevA.03 25-Dec-2016

 ----------------
 # 6-31g(d) wb97x
 ----------------

 -----------------------
 tmpdir/M3_conf_0_28.gjf
 -----------------------
 Symbolic Z-matrix:
 Charge =  0 Multiplicity = 1

                         Standard orientation:
 ---------------------------------------------------------------------
 Center     Atomic      Atomic             Coordinates (Angstroms)
 Number     Number       Type             X           Y           Z
 ---------------------------------------------------------------------
      1          7           0        0.740728   -0.000073   -0.114116
      2          6           0       -0.701520    0.000061    0.013688
      3          1           0       -1.123032   -0.883730   -0.477364
      4          1           0        1.151367    0.832909    0.302328
      5          1           0        1.151273   -0.834973    0.298819
      6          1           0       -1.038843   -0.001944    1.068355
      7          1           0       -1.116745    0.887887   -0.475458
 ---------------------------------------------------------------------

 SCF Done:  E(RwB97X) =  -95.8222556794     A.U. after   14 cycles

 The electronic state is 1-A.
 Alpha  occ. eigenvalues --  -14.38045 -10.27919  -0.99572  -0.77531  -0.59973
 Alpha  occ. eigenvalues --   -0.53871  -0.50713  -0.46792  -0.32268
 Alpha virt. eigenvalues --    0.18555   0.24204   0.25423   0.27744   0.29082
 Alpha virt. eigenvalues --    0.34583   0.66193   0.67330   0.69884   0.85045
 Alpha virt. eigenvalues --    0.87205   0.90121   0.97787   1.03222   1.04413

 Mulliken charges:
               1
     1  N   -0.740756
     2  C   -0.327822
     3  H    0.162620
     4  H    0.308283
     5  H    0.308146
     6  H    0.126938
     7  H    0.162592
 Sum of Mulliken charges =   0.00000

 Dipole moment (field-independent basis, Debye):
    X=             -0.1340    Y=             -0.0028    Z=              1.3539  Tot=              1.3605
 Quadrupole moment (field-independent basis, Debye-Ang):
   XX=            -13.4838   YY=            -12.2200   ZZ=            -15.2503
   XY=              0.0017   XZ=              2.0688   YZ=              0.0026

 Normal termination of Gaussian 16 at Fri Sep 22 11:10:40 2023.
