 Gaussian 16, Revision A.03,
 Gaussian 16:  ES64L-G16RevA.03 25-Dec-2016

 ----------------
 # 6-31g(d) wb97x
 ----------------

 -----------------------
 tmpdir/M3_conf_0_68.gjf
 -----------------------
 Symbolic Z-matrix:
 Charge =  0 Multiplicity = 1

                         Standard orientation:
 ---------------------------------------------------------------------
 Center     Atomic      Atomic             Coordinates (Angstroms)
 Number     Number       Type             X           Y           Z
 ---------------------------------------------------------------------
      1          6           0        0.211387   -0.010095   -0.018833
      2          6           0        1.709615   -0.120978   -0.047511
      3          7           0        2.496608    0.939956    0.314636
      4          6           0       -0.476720    1.195483   -0.175997
      5          6           0       -0.514514   -1.189080    0.145875
      6          6           0       -1.865648    1.220092   -0.155226
      7          1           0        0.065126    2.121774   -0.357060
      8          6           0       -1.902508   -1.158365    0.181889
      9          1           0        0.029480   -2.123271    0.252717
     10          6           0       -2.594032    0.043495    0.028212
     11          1           0       -2.406459    2.154975   -0.277140
     12          1           0       -2.458500   -2.082165    0.330531
     13          8           0        2.259038   -1.160675   -0.378748
     14          1           0        2.021381    1.708802    0.763085
     15          1           0        3.485184    0.982070    0.355082
     16          1           0       -3.690257    0.060219    0.009864
 ---------------------------------------------------------------------

 SCF Done:  E(RwB97X) =  -400.839079904     A.U. after   15 cycles

 The electronic state is 1-A.
 Alpha  occ. eigenvalues --  -19.17027 -14.42956 -10.37543 -10.29111 -10.28918
 Alpha  occ. eigenvalues --  -10.28652 -10.28393 -10.28135 -10.28013  -1.15542
 Alpha  occ. eigenvalues --   -1.02656  -0.99629  -0.89296  -0.88257  -0.76647
 Alpha  occ. eigenvalues --   -0.73384  -0.69903  -0.65895  -0.62739  -0.59379
 Alpha  occ. eigenvalues --   -0.56744  -0.54842  -0.53445  -0.52077  -0.51032
 Alpha  occ. eigenvalues --   -0.47753  -0.46210  -0.44665  -0.36463  -0.35622
 Alpha  occ. eigenvalues --   -0.35155  -0.33939
 Alpha virt. eigenvalues --    0.04809   0.07620   0.15946   0.17252   0.19896
 Alpha virt. eigenvalues --    0.22573   0.24865   0.25570   0.27254   0.28723
 Alpha virt. eigenvalues --    0.29139   0.35321   0.38791   0.39306   0.39960

 Mulliken charges:
               1
     1  C    0.024452
     2  C    0.540010
     3  N   -0.785516
     4  C   -0.195376
     5  C   -0.170557
     6  C   -0.166316
     7  H    0.160305
     8  C   -0.167800
     9  H    0.197580
    10  C   -0.150741
    11  H    0.165470
    12  H    0.168586
    13  O   -0.493072
    14  H    0.336965
    15  H    0.365869
    16  H    0.170141
 Sum of Mulliken charges =  -0.00000

 Dipole moment (field-independent basis, Debye):
    X=             -1.3814    Y=              3.1111    Z=              1.4196  Tot=              3.6881
 Quadrupole moment (field-independent basis, Debye-Ang):
   XX=            -45.5224   YY=            -47.4136   ZZ=            -54.4462
   XY=              8.7231   XZ=              3.5939   YZ=             -0.5788

 Normal termination of Gaussian 16 at Fri Sep 22 11:11:22 2023.
