 Gaussian 16, Revision A.03,
 Gaussian 16:  ES64L-G16RevA.03 25-Dec-2016

 ----------------
 # 6-31g(d) wb97x
 ----------------

 ----------------------
 tmpdir/M3_conf_1_9.gjf
 ----------------------
 Symbolic Z-matrix:
 Charge =  0 Multiplicity = 1

                         Standard orientation:
 ---------------------------------------------------------------------
 Center     Atomic      Atomic             Coordinates (Angstroms)
 Number     Number       Type             X           Y           Z
 ---------------------------------------------------------------------
      1          6           0        1.229816   -0.243982   -0.034560
      2          6           0       -0.051081    0.571781    0.063963
      3          7           0       -1.191675   -0.315700   -0.115532
      4          1           0        2.093525    0.410310    0.134096
      5          1           0        1.313870   -0.657702   -1.059519
      6          1           0        1.237846   -1.073129    0.751561
      7          1           0       -0.074743    1.087311    1.043306
      8          1           0       -0.058411    1.337526   -0.720823
      9          1           0       -1.171496   -1.054495    0.588611
     10          1           0       -2.071276    0.193287   -0.104926
 ---------------------------------------------------------------------

 SCF Done:  E(RwB97X) =  -135.127282594     A.U. after   13 cycles

 The electronic state is 1-A.
 Alpha  occ. eigenvalues --  -14.37898 -10.28466 -10.25852  -1.00010  -0.84864
 Alpha  occ. eigenvalues --   -0.71457  -0.60013  -0.56591  -0.52583  -0.46221
 Alpha  occ. eigenvalues --   -0.45868  -0.44437  -0.32290
 Alpha virt. eigenvalues --    0.18118   0.22323   0.23337   0.26186   0.27055
 Alpha virt. eigenvalues --    0.28983   0.29924   0.33640   0.35733   0.63501
 Alpha virt. eigenvalues --    0.66787   0.68147   0.69195   0.78635   0.79111

 Mulliken charges:
               1
     1  C   -0.461379
     2  C   -0.142677
     3  N   -0.741673
     4  H    0.153435
     5  H    0.170109
     6  H    0.136083
     7  H    0.121549
     8  H    0.152673
     9  H    0.302333
    10  H    0.309549
 Sum of Mulliken charges =  -0.00000

 Dipole moment (field-independent basis, Debye):
    X=             -0.2565    Y=              0.5450    Z=              1.1109  Tot=              1.2637
 Quadrupole moment (field-independent basis, Debye-Ang):
   XX=            -19.0572   YY=            -20.3025   ZZ=            -21.1778
   XY=             -0.5710   XZ=             -1.5604   YZ=             -1.8228

 Normal termination of Gaussian 16 at Fri Sep 22 11:12:26 2023.
