 Gaussian 16, Revision A.03,
 Gaussian 16:  ES64L-G16RevA.03 25-Dec-2016

 ----------------
 # 6-31g(d) wb97x
 ----------------

 -----------------------
 tmpdir/M3_conf_1_33.gjf
 -----------------------
 Symbolic Z-matrix:
 Charge =  0 Multiplicity = 1

                         Standard orientation:
 ---------------------------------------------------------------------
 Center     Atomic      Atomic             Coordinates (Angstroms)
 Number     Number       Type             X           Y           Z
 ---------------------------------------------------------------------
      1          6           0       -0.000344    0.002513   -0.001721
      2          1           0       -0.146749   -0.436212    0.992571
      3          1           0        1.109881   -0.051165   -0.266825
      4          1           0       -0.615830   -0.575896   -0.719939
      5          1           0       -0.345237    1.048192    0.004518
 ---------------------------------------------------------------------

 SCF Done:  E(RwB97X) =  -40.4976842207     A.U. after   11 cycles

 The electronic state is 1-A.
 Alpha  occ. eigenvalues --  -10.25715  -0.81230  -0.49485  -0.49203  -0.48772
 Alpha virt. eigenvalues --    0.21083   0.26418   0.27061   0.27409   0.64009
 Alpha virt. eigenvalues --    0.64270   0.65605   0.98783   1.00668   1.01386
 Alpha virt. eigenvalues --    1.04991   1.20202   1.76023   1.76271   2.29819

 Mulliken charges:
               1
     1  C   -0.658680
     2  H    0.167721
     3  H    0.157801
     4  H    0.165378
     5  H    0.167780
 Sum of Mulliken charges =  -0.00000

 Dipole moment (field-independent basis, Debye):
    X=             -0.0373    Y=             -0.0054    Z=              0.0272  Tot=              0.0464
 Quadrupole moment (field-independent basis, Debye-Ang):
   XX=             -8.2132   YY=             -8.3042   ZZ=             -8.3863
   XY=             -0.0022   XZ=              0.0152   YZ=             -0.0095

 Normal termination of Gaussian 16 at Fri Sep 22 11:12:33 2023.
