 Gaussian 16, Revision A.03,
 Gaussian 16:  ES64L-G16RevA.03 25-Dec-2016

 ----------------
 # 6-31g(d) wb97x
 ----------------

 -----------------------
 tmpdir/M3_conf_1_75.gjf
 -----------------------
 Symbolic Z-matrix:
 Charge =  0 Multiplicity = 1

                         Standard orientation:
 ---------------------------------------------------------------------
 Center     Atomic      Atomic             Coordinates (Angstroms)
 Number     Number       Type             X           Y           Z
 ---------------------------------------------------------------------
      1          6           0        0.911703   -0.006503   -0.000160
      2          6           0        2.416549    0.006157    0.000582
      3          6           0        0.197625    1.185119   -0.003522
      4          6           0        0.184976   -1.216550    0.000617
      5          6           0       -1.190117    1.211249    0.000839
      6          1           0        0.746684    2.124417   -0.006100
      7          6           0       -1.212093   -1.208303   -0.000722
      8          6           0       -1.893048    0.008743    0.005849
      9          1           0       -1.720749    2.161051    0.008529
     10          1           0       -1.753733   -2.139751   -0.007120
     11          1           0        2.790663    1.033535   -0.006638
     12          1           0        2.833616   -0.497535   -0.881431
     13          1           0        2.833274   -0.483515    0.890990
     14          1           0        0.779602   -2.144473    0.001095
     15          1           0       -3.002923    0.066804   -0.020227
 ---------------------------------------------------------------------

 SCF Done:  E(RwB97X) =  -271.485401676     A.U. after   13 cycles

 The electronic state is 1-A.
 Alpha  occ. eigenvalues --  -10.27747 -10.27110 -10.27034 -10.27014 -10.26816
 Alpha  occ. eigenvalues --  -10.26447 -10.26442  -0.98302  -0.89666  -0.86727
 Alpha  occ. eigenvalues --   -0.80523  -0.72023  -0.69565  -0.61878  -0.56243
 Alpha  occ. eigenvalues --   -0.55995  -0.52729  -0.52105  -0.50571  -0.48352
 Alpha  occ. eigenvalues --   -0.46078  -0.43539  -0.43008  -0.33684  -0.32531
 Alpha virt. eigenvalues --    0.08558   0.09296   0.18691   0.21769   0.23487
 Alpha virt. eigenvalues --    0.25108   0.25667   0.27244   0.28647   0.30082
 Alpha virt. eigenvalues --    0.30749   0.33834   0.40940   0.41615   0.42269

 Mulliken charges:
               1
     1  C    0.134970
     2  C   -0.545405
     3  C   -0.203490
     4  C   -0.198907
     5  C   -0.150925
     6  H    0.146427
     7  C   -0.157746
     8  C   -0.169006
     9  H    0.160040
    10  H    0.161167
    11  H    0.167437
    12  H    0.174375
    13  H    0.174532
    14  H    0.151389
    15  H    0.155142
 Sum of Mulliken charges =  -0.00000

 Dipole moment (field-independent basis, Debye):
    X=              0.3322    Y=             -0.0044    Z=             -0.0143  Tot=              0.3326
 Quadrupole moment (field-independent basis, Debye-Ang):
   XX=            -37.4536   YY=            -37.9524   ZZ=            -45.0881
   XY=             -0.2399   XZ=              0.0561   YZ=              0.0187

 Normal termination of Gaussian 16 at Fri Sep 22 11:13:55 2023.
