 Gaussian 16, Revision A.03,
 Gaussian 16:  ES64L-G16RevA.03 25-Dec-2016

 ----------------
 # 6-31g(d) wb97x
 ----------------

 -----------------------
 tmpdir/M3_conf_2_89.gjf
 -----------------------
 Symbolic Z-matrix:
 Charge =  0 Multiplicity = 1

                         Standard orientation:
 ---------------------------------------------------------------------
 Center     Atomic      Atomic             Coordinates (Angstroms)
 Number     Number       Type             X           Y           Z
 ---------------------------------------------------------------------
      1          1           0       -2.601802    0.905172   -0.003456
      2          7           0       -2.230599   -0.032803    0.005976
      3          6           0       -0.857298   -0.060908    0.000786
      4          7           0       -0.200922   -1.218340   -0.002943
      5          7           0       -0.307436    1.169392   -0.007301
      6          6           0        1.137982   -1.161815   -0.005421
      7          6           0        1.017286    1.200388   -0.002144
      8          6           0        1.810086    0.058430    0.004609
      9          1           0        1.471108    2.190760    0.002160
     10          1           0        2.890958    0.125537    0.039088
     11          1           0       -2.889134   -0.760835    0.012341
     12          1           0        1.653220   -2.104947   -0.007238
 ---------------------------------------------------------------------

 SCF Done:  E(RwB97X) =  -319.605692673     A.U. after   15 cycles

 The electronic state is 1-A.
 Alpha  occ. eigenvalues --  -14.41832 -14.40172 -14.39984 -10.37351 -10.32032
 Alpha  occ. eigenvalues --  -10.31852 -10.27108  -1.12720  -1.02549  -1.00986
 Alpha  occ. eigenvalues --   -0.89694  -0.77981  -0.76219  -0.66422  -0.64605
 Alpha  occ. eigenvalues --   -0.58704  -0.57909  -0.54884  -0.52684  -0.51358
 Alpha  occ. eigenvalues --   -0.42849  -0.41103  -0.40529  -0.34253  -0.31318
 Alpha virt. eigenvalues --    0.05740   0.09421   0.20146   0.21133   0.24309
 Alpha virt. eigenvalues --    0.26012   0.26959   0.27679   0.33566   0.35455
 Alpha virt. eigenvalues --    0.42660   0.43991   0.46439   0.49635   0.56582

 Mulliken charges:
               1
     1  H    0.357189
     2  N   -0.799651
     3  C    0.618989
     4  N   -0.456248
     5  N   -0.460191
     6  C    0.042516
     7  C    0.047330
     8  C   -0.230761
     9  H    0.174805
    10  H    0.169432
    11  H    0.356872
    12  H    0.179719
 Sum of Mulliken charges =  -0.00000

 Dipole moment (field-independent basis, Debye):
    X=              0.1144    Y=              0.1619    Z=              0.0323  Tot=              0.2008
 Quadrupole moment (field-independent basis, Debye-Ang):
   XX=            -28.0314   YY=            -40.8727   ZZ=            -42.2895
   XY=              0.1222   XZ=              0.0659   YZ=              0.0035

 Normal termination of Gaussian 16 at Fri Sep 22 11:15:47 2023.
