 Gaussian 16, Revision A.03,
 Gaussian 16:  ES64L-G16RevA.03 25-Dec-2016

 ----------------
 # 6-31g(d) wb97x
 ----------------

 -----------------------
 tmpdir/M3_conf_0_87.gjf
 -----------------------
 Symbolic Z-matrix:
 Charge =  0 Multiplicity = 1

                         Standard orientation:
 ---------------------------------------------------------------------
 Center     Atomic      Atomic             Coordinates (Angstroms)
 Number     Number       Type             X           Y           Z
 ---------------------------------------------------------------------
      1          7           0       -2.227040   -0.035566    0.006004
      2          6           0       -0.858212   -0.062357    0.000811
      3          7           0       -0.200803   -1.219203   -0.002930
      4          7           0       -0.309449    1.168427   -0.007289
      5          6           0        1.138053   -1.161484   -0.005418
      6          6           0        1.015253    1.200610   -0.002152
      7          6           0        1.809064    0.059347    0.004600
      8          1           0        1.468187    2.191371    0.002149
      9          1           0        2.889882    0.127421    0.039057
     10          1           0       -2.909471   -0.741242    0.012200
     11          1           0       -2.566627    0.914312   -0.003700
     12          1           0        1.654122   -2.104164   -0.007252
 ---------------------------------------------------------------------

 SCF Done:  E(RwB97X) =  -319.604555771     A.U. after   15 cycles

 The electronic state is 1-A.
 Alpha  occ. eigenvalues --  -14.41835 -14.40183 -14.39924 -10.37332 -10.32005
 Alpha  occ. eigenvalues --  -10.31856 -10.27084  -1.12780  -1.02667  -1.00977
 Alpha  occ. eigenvalues --   -0.89673  -0.78001  -0.76245  -0.66586  -0.64557
 Alpha  occ. eigenvalues --   -0.58774  -0.57744  -0.54916  -0.52663  -0.51336
 Alpha  occ. eigenvalues --   -0.42910  -0.41121  -0.40522  -0.34244  -0.31297
 Alpha virt. eigenvalues --    0.05748   0.09461   0.20178   0.21126   0.24242
 Alpha virt. eigenvalues --    0.26029   0.26924   0.27688   0.33608   0.35490
 Alpha virt. eigenvalues --    0.42803   0.44077   0.46484   0.49663   0.56670

 Mulliken charges:
               1
     1  N   -0.800755
     2  C    0.622195
     3  N   -0.456085
     4  N   -0.462677
     5  C    0.042551
     6  C    0.047830
     7  C   -0.231266
     8  H    0.174888
     9  H    0.169283
    10  H    0.357910
    11  H    0.356616
    12  H    0.179511
 Sum of Mulliken charges =  -0.00000

 Dipole moment (field-independent basis, Debye):
    X=              0.0982    Y=              0.1802    Z=              0.0320  Tot=              0.2077
 Quadrupole moment (field-independent basis, Debye-Ang):
   XX=            -28.0117   YY=            -40.9084   ZZ=            -42.2813
   XY=              0.1492   XZ=              0.0661   YZ=              0.0036

 Normal termination of Gaussian 16 at Fri Sep 22 11:11:57 2023.
