 Gaussian 16, Revision A.03,
 Gaussian 16:  ES64L-G16RevA.03 25-Dec-2016

 ----------------
 # 6-31g(d) wb97x
 ----------------

 -----------------------
 tmpdir/M3_conf_0_74.gjf
 -----------------------
 Symbolic Z-matrix:
 Charge =  0 Multiplicity = 1

                         Standard orientation:
 ---------------------------------------------------------------------
 Center     Atomic      Atomic             Coordinates (Angstroms)
 Number     Number       Type             X           Y           Z
 ---------------------------------------------------------------------
      1          1           0       -2.729688    0.873833   -0.210082
      2          7           0       -2.331879   -0.033938   -0.020926
      3          6           0       -0.917876   -0.047846    0.009696
      4          6           0       -0.185635   -1.234630   -0.006484
      5          6           0       -0.266791    1.183507    0.012249
      6          1           0       -0.686968   -2.188320   -0.018773
      7          6           0        1.210515   -1.183132   -0.007158
      8          1           0       -0.837486    2.109698    0.027310
      9          6           0        1.120802    1.216528    0.005713
     10          6           0        1.884965    0.056399   -0.000465
     11          1           0        1.629210    2.178430    0.009035
     12          1           0       -2.947200   -0.708301    0.273152
     13          1           0        1.844259   -2.084770   -0.014041
     14          1           0        2.975143    0.112046   -0.001424
 ---------------------------------------------------------------------

 SCF Done:  E(RwB97X) =  -287.511010675     A.U. after   14 cycles

 The electronic state is 1-A.
 Alpha  occ. eigenvalues --  -14.40231 -10.31047 -10.27042 -10.26477 -10.25970
 Alpha  occ. eigenvalues --  -10.25860 -10.25585  -1.03520  -0.95830  -0.86426
 Alpha  occ. eigenvalues --   -0.84667  -0.72443  -0.71058  -0.63678  -0.61535
 Alpha  occ. eigenvalues --   -0.58046  -0.53108  -0.52899  -0.51718  -0.48427
 Alpha  occ. eigenvalues --   -0.45092  -0.43121  -0.39828  -0.33330  -0.28205
 Alpha virt. eigenvalues --    0.09299   0.10991   0.18789   0.19975   0.23139
 Alpha virt. eigenvalues --    0.26115   0.27162   0.28417   0.29516   0.30658
 Alpha virt. eigenvalues --    0.36288   0.40694   0.42538   0.45512   0.45896

 Mulliken charges:
               1
     1  H    0.335649
     2  N   -0.850401
     3  C    0.336537
     4  C   -0.202162
     5  C   -0.217162
     6  H    0.150733
     7  C   -0.168064
     8  H    0.146106
     9  C   -0.159020
    10  C   -0.173405
    11  H    0.151713
    12  H    0.341154
    13  H    0.155707
    14  H    0.152616
 Sum of Mulliken charges =  -0.00000

 Dipole moment (field-independent basis, Debye):
    X=             -1.4477    Y=              0.1538    Z=              0.2638  Tot=              1.4795
 Quadrupole moment (field-independent basis, Debye-Ang):
   XX=            -32.4068   YY=            -36.0551   ZZ=            -45.6397
   XY=             -0.3752   XZ=             -0.8792   YZ=             -0.8087

 Normal termination of Gaussian 16 at Fri Sep 22 11:11:48 2023.
