 Gaussian 16, Revision A.03,
 Gaussian 16:  ES64L-G16RevA.03 25-Dec-2016

 ----------------
 # 6-31g(d) wb97x
 ----------------

 -----------------------
 tmpdir/M3_conf_2_73.gjf
 -----------------------
 Symbolic Z-matrix:
 Charge =  0 Multiplicity = 1

                         Standard orientation:
 ---------------------------------------------------------------------
 Center     Atomic      Atomic             Coordinates (Angstroms)
 Number     Number       Type             X           Y           Z
 ---------------------------------------------------------------------
      1          6           0        2.600333   -0.215008   -0.000649
      2          7           0        1.431981   -0.885551   -0.248445
      3          6           0        0.114811   -0.386712   -0.119077
      4          6           0       -0.178735    0.972715   -0.222553
      5          6           0       -0.904239   -1.316327    0.074640
      6          1           0        0.606665    1.692810   -0.382581
      7          6           0       -1.504261    1.401538   -0.117758
      8          1           0       -0.675605   -2.376772    0.157845
      9          6           0       -2.216230   -0.873633    0.170838
     10          6           0       -2.547477    0.472615    0.082678
     11          1           0       -3.011946   -1.599775    0.323461
     12          1           0        3.504597   -0.802398   -0.143344
     13          8           0        2.655283    0.948137    0.369002
     14          1           0        1.511900   -1.885464   -0.357382
     15          1           0       -1.799274    2.461258   -0.185499
     16          1           0       -3.587685    0.792974    0.165881
 ---------------------------------------------------------------------

 SCF Done:  E(RwB97X) =  -400.831262778     A.U. after   16 cycles

 The electronic state is 1-A.
 Alpha  occ. eigenvalues --  -19.19266 -14.45873 -10.38104 -10.32432 -10.27992
 Alpha  occ. eigenvalues --  -10.27961 -10.27779 -10.27315 -10.27087  -1.16847
 Alpha  occ. eigenvalues --   -1.07422  -0.98106  -0.87827  -0.87673  -0.76911
 Alpha  occ. eigenvalues --   -0.74158  -0.69597  -0.66565  -0.62889  -0.59652
 Alpha  occ. eigenvalues --   -0.55865  -0.54526  -0.53609  -0.52804  -0.51995
 Alpha  occ. eigenvalues --   -0.48095  -0.46696  -0.44498  -0.40661  -0.36328
 Alpha  occ. eigenvalues --   -0.34328  -0.31219
 Alpha virt. eigenvalues --    0.06908   0.08217   0.13515   0.16650   0.18949
 Alpha virt. eigenvalues --    0.23614   0.24563   0.25575   0.27344   0.28936
 Alpha virt. eigenvalues --    0.29684   0.33011   0.38076   0.39494   0.40090

 Mulliken charges:
               1
     1  C    0.339366
     2  N   -0.667519
     3  C    0.319267
     4  C   -0.173493
     5  C   -0.213363
     6  H    0.203067
     7  C   -0.175286
     8  H    0.154190
     9  C   -0.163262
    10  C   -0.159523
    11  H    0.159107
    12  H    0.144635
    13  O   -0.443576
    14  H    0.345894
    15  H    0.167041
    16  H    0.163456
 Sum of Mulliken charges =  -0.00000

 Dipole moment (field-independent basis, Debye):
    X=             -0.8649    Y=             -3.1830    Z=             -0.8291  Tot=              3.4010
 Quadrupole moment (field-independent basis, Debye-Ang):
   XX=            -48.9165   YY=            -45.4790   ZZ=            -55.2357
   XY=             -8.6582   XZ=             -3.0365   YZ=             -1.1182

 Normal termination of Gaussian 16 at Fri Sep 22 11:15:15 2023.
