 Gaussian 16, Revision A.03,
 Gaussian 16:  ES64L-G16RevA.03 25-Dec-2016

 ----------------
 # 6-31g(d) wb97x
 ----------------

 -----------------------
 tmpdir/M3_conf_0_32.gjf
 -----------------------
 Symbolic Z-matrix:
 Charge =  0 Multiplicity = 1

                         Standard orientation:
 ---------------------------------------------------------------------
 Center     Atomic      Atomic             Coordinates (Angstroms)
 Number     Number       Type             X           Y           Z
 ---------------------------------------------------------------------
      1          1           0       -0.223129   -0.474677    0.956573
      2          6           0        0.002943    0.005016   -0.001908
      3          1           0       -0.249802   -0.714043   -0.788657
      4          1           0        1.109058    0.268385   -0.048689
      5          1           0       -0.653787    0.890238   -0.107777
 ---------------------------------------------------------------------

 SCF Done:  E(RwB97X) =  -40.4977383382     A.U. after   11 cycles

 The electronic state is 1-A.
 Alpha  occ. eigenvalues --  -10.25572  -0.81337  -0.49445  -0.49148  -0.49018
 Alpha virt. eigenvalues --    0.21152   0.26633   0.27184   0.27372   0.63802
 Alpha virt. eigenvalues --    0.64176   0.65646   0.99101   1.00908   1.01288
 Alpha virt. eigenvalues --    1.05749   1.20387   1.76029   1.76118   2.29782

 Mulliken charges:
               1
     1  H    0.167151
     2  C   -0.660586
     3  H    0.167571
     4  H    0.159848
     5  H    0.166016
 Sum of Mulliken charges =   0.00000

 Dipole moment (field-independent basis, Debye):
    X=             -0.0453    Y=             -0.0398    Z=              0.0108  Tot=              0.0612
 Quadrupole moment (field-independent basis, Debye-Ang):
   XX=             -8.1514   YY=             -8.3331   ZZ=             -8.3938
   XY=             -0.0109   XZ=              0.0031   YZ=              0.0036

 Normal termination of Gaussian 16 at Fri Sep 22 11:10:39 2023.
