 Gaussian 16, Revision A.03,
 Gaussian 16:  ES64L-G16RevA.03 25-Dec-2016

 ----------------
 # 6-31g(d) wb97x
 ----------------

 ---------------------------
 tmpdir/M3_frag_conf_2_3.gjf
 ---------------------------
 Symbolic Z-matrix:
 Charge =  0 Multiplicity = 1

                         Standard orientation:
 ---------------------------------------------------------------------
 Center     Atomic      Atomic             Coordinates (Angstroms)
 Number     Number       Type             X           Y           Z
 ---------------------------------------------------------------------
      1          6           0       -0.989540    0.949711   -0.012704
      2          6           0        0.344654    1.343520   -0.012139
      3          1           0        0.612982    2.393639    0.002254
      4          6           0        1.321245    0.354909   -0.001033
      5          1           0        2.366660    0.628526    0.051115
      6          6           0        0.926446   -0.980319   -0.001200
      7          1           0        1.673143   -1.760874    0.065960
      8          7           0       -0.356839   -1.377878   -0.014866
      9          6           0       -1.281395   -0.420770   -0.002158
     10          1           0       -2.309046   -0.767464    0.070631
     11          1           0       -1.774326    1.669009    0.089507
 ---------------------------------------------------------------------

 SCF Done:  E(RwB97X) =  -248.211645316     A.U. after   14 cycles

 The electronic state is 1-A.
 Alpha  occ. eigenvalues --  -14.40703 -10.30653 -10.30631 -10.29450 -10.28235
 Alpha  occ. eigenvalues --  -10.28202  -1.07057  -0.93437  -0.88902  -0.75045
 Alpha  occ. eigenvalues --   -0.74706  -0.64569  -0.58647  -0.58312  -0.53513
 Alpha  occ. eigenvalues --   -0.51244  -0.50913  -0.46352  -0.38131  -0.35544
 Alpha  occ. eigenvalues --   -0.35176
 Alpha virt. eigenvalues --    0.06247   0.07583   0.19143   0.24049   0.25190
 Alpha virt. eigenvalues --    0.25794   0.27851   0.28198   0.33715   0.39270
 Alpha virt. eigenvalues --    0.41832   0.42257   0.55518   0.55987   0.62088

 Mulliken charges:
               1
     1  C   -0.179021
     2  C   -0.132420
     3  H    0.176380
     4  C   -0.177720
     5  H    0.170413
     6  C    0.012930
     7  H    0.169787
     8  N   -0.394025
     9  C    0.014312
    10  H    0.168947
    11  H    0.170418
 Sum of Mulliken charges =  -0.00000

 Dipole moment (field-independent basis, Debye):
    X=              0.5679    Y=              2.1823    Z=              0.1783  Tot=              2.2620
 Quadrupole moment (field-independent basis, Debye-Ang):
   XX=            -29.2200   YY=            -35.1244   ZZ=            -37.0220
   XY=             -1.5827   XZ=             -0.0819   YZ=              0.0425

 Normal termination of Gaussian 16 at Fri Sep 22 11:15:57 2023.
