 Gaussian 16, Revision A.03,
 Gaussian 16:  ES64L-G16RevA.03 25-Dec-2016

 ----------------
 # 6-31g(d) wb97x
 ----------------

 ---------------------------
 tmpdir/M3_frag_conf_1_1.gjf
 ---------------------------
 Symbolic Z-matrix:
 Charge =  0 Multiplicity = 1

                         Standard orientation:
 ---------------------------------------------------------------------
 Center     Atomic      Atomic             Coordinates (Angstroms)
 Number     Number       Type             X           Y           Z
 ---------------------------------------------------------------------
      1          6           0        1.360313    0.292120    0.005301
      2          6           0        0.437123    1.338588   -0.002367
      3          1           0        0.784217    2.359751   -0.012753
      4          6           0        0.939444   -1.034317    0.005023
      5          1           0        1.665679   -1.842865    0.050566
      6          6           0       -0.424663   -1.317055   -0.013357
      7          1           0       -0.745563   -2.353832   -0.003733
      8          6           0       -1.377956   -0.304299   -0.004608
      9          6           0       -0.934494    1.041907    0.009568
     10          1           0        2.464219    0.471712   -0.049346
     11          1           0       -2.439814   -0.546937    0.011682
     12          1           0       -1.727335    1.810514    0.006229
 ---------------------------------------------------------------------

 SCF Done:  E(RwB97X) =  -232.175822948     A.U. after   14 cycles

 The electronic state is 1-A.
 Alpha  occ. eigenvalues --  -10.27800 -10.27558 -10.27442 -10.27390 -10.27107
 Alpha  occ. eigenvalues --  -10.27046  -0.97938  -0.86955  -0.86733  -0.71854
 Alpha  occ. eigenvalues --   -0.71490  -0.63314  -0.56808  -0.54682  -0.52442
 Alpha  occ. eigenvalues --   -0.52060  -0.47438  -0.44094  -0.43494  -0.33923
 Alpha  occ. eigenvalues --   -0.33662
 Alpha virt. eigenvalues --    0.08507   0.08776   0.18340   0.24020   0.24471
 Alpha virt. eigenvalues --    0.26973   0.27664   0.28119   0.29185   0.39295
 Alpha virt. eigenvalues --    0.40253   0.41045   0.41968   0.57574   0.63217

 Mulliken charges:
               1
     1  C   -0.163639
     2  C   -0.157404
     3  H    0.163809
     4  C   -0.153412
     5  H    0.161696
     6  C   -0.160766
     7  H    0.155967
     8  C   -0.157207
     9  C   -0.168771
    10  H    0.157042
    11  H    0.163409
    12  H    0.159276
 Sum of Mulliken charges =  -0.00000

 Dipole moment (field-independent basis, Debye):
    X=             -0.0197    Y=             -0.0465    Z=              0.0023  Tot=              0.0505
 Quadrupole moment (field-independent basis, Debye-Ang):
   XX=            -30.8733   YY=            -31.2572   ZZ=            -38.9556
   XY=             -0.0684   XZ=             -0.0774   YZ=             -0.1254

 Normal termination of Gaussian 16 at Fri Sep 22 11:14:08 2023.
