 Gaussian 16, Revision A.03,
 Gaussian 16:  ES64L-G16RevA.03 25-Dec-2016

 ----------------
 # 6-31g(d) wb97x
 ----------------

 ---------------------------
 tmpdir/M3_frag_conf_2_2.gjf
 ---------------------------
 Symbolic Z-matrix:
 Charge =  0 Multiplicity = 1

                         Standard orientation:
 ---------------------------------------------------------------------
 Center     Atomic      Atomic             Coordinates (Angstroms)
 Number     Number       Type             X           Y           Z
 ---------------------------------------------------------------------
      1          6           0       -1.328346   -0.056666   -0.012550
      2          7           0       -0.772642    1.159480   -0.013546
      3          7           0       -0.654760   -1.216614    0.011220
      4          6           0        0.680079   -1.144137    0.001862
      5          1           0        1.196476   -2.093527    0.077898
      6          6           0        1.367787    0.056895   -0.029103
      7          1           0        2.448644    0.086375   -0.057302
      8          6           0        0.572024    1.209174    0.016096
      9          1           0       -2.406058   -0.165929    0.010883
     10          1           0        1.003486    2.181423    0.126985
 ---------------------------------------------------------------------

 SCF Done:  E(RwB97X) =  -264.247928697     A.U. after   14 cycles

 The electronic state is 1-A.
 Alpha  occ. eigenvalues --  -14.42215 -14.41840 -10.34378 -10.33241 -10.32884
 Alpha  occ. eigenvalues --  -10.29729  -1.11846  -1.01633  -0.92851  -0.78211
 Alpha  occ. eigenvalues --   -0.78066  -0.66030  -0.62374  -0.58736  -0.54311
 Alpha  occ. eigenvalues --   -0.52936  -0.52204  -0.41302  -0.40778  -0.38216
 Alpha  occ. eigenvalues --   -0.35186
 Alpha virt. eigenvalues --    0.04416   0.05606   0.19848   0.23569   0.24818
 Alpha virt. eigenvalues --    0.25221   0.26858   0.32656   0.34035   0.42172
 Alpha virt. eigenvalues --    0.43455   0.47846   0.51326   0.60663   0.65034

 Mulliken charges:
               1
     1  C    0.151815
     2  N   -0.385312
     3  N   -0.383612
     4  C    0.031362
     5  H    0.183492
     6  C   -0.190980
     7  H    0.186376
     8  C    0.031018
     9  H    0.188765
    10  H    0.187075
 Sum of Mulliken charges =  -0.00000

 Dipole moment (field-independent basis, Debye):
    X=              2.2962    Y=              0.1027    Z=              0.0647  Tot=              2.2994
 Quadrupole moment (field-independent basis, Debye-Ang):
   XX=            -29.8134   YY=            -36.5035   ZZ=            -35.2980
   XY=              0.4360   XZ=              0.0895   YZ=              0.1571

 Normal termination of Gaussian 16 at Fri Sep 22 11:15:56 2023.
