 Gaussian 16, Revision A.03,
 Gaussian 16:  ES64L-G16RevA.03 25-Dec-2016

 ----------------
 # 6-31g(d) wb97x
 ----------------

 ---------------------------
 tmpdir/M3_frag_conf_0_2.gjf
 ---------------------------
 Symbolic Z-matrix:
 Charge =  0 Multiplicity = 1

                         Standard orientation:
 ---------------------------------------------------------------------
 Center     Atomic      Atomic             Coordinates (Angstroms)
 Number     Number       Type             X           Y           Z
 ---------------------------------------------------------------------
      1          6           0       -1.389785   -0.159722   -0.016135
      2          7           0       -0.863664    1.088195   -0.004274
      3          7           0       -0.562827   -1.231777    0.021193
      4          6           0        0.805292   -1.111720   -0.007756
      5          1           0        1.371064   -2.038441   -0.004073
      6          6           0        1.377251    0.158535   -0.005994
      7          1           0        2.452990    0.263784   -0.021138
      8          6           0        0.499032    1.267773    0.008753
      9          1           0       -2.444923   -0.370889   -0.003826
     10          1           0        0.855559    2.221422    0.037395
 ---------------------------------------------------------------------

 SCF Done:  E(RwB97X) =  -264.232431140     A.U. after   15 cycles

 The electronic state is 1-A.
 Alpha  occ. eigenvalues --  -14.42220 -14.41670 -10.34808 -10.33359 -10.33111
 Alpha  occ. eigenvalues --  -10.29986  -1.10112  -0.99526  -0.92674  -0.78192
 Alpha  occ. eigenvalues --   -0.77456  -0.66290  -0.61514  -0.58857  -0.53723
 Alpha  occ. eigenvalues --   -0.53216  -0.53053  -0.40165  -0.39920  -0.38078
 Alpha  occ. eigenvalues --   -0.33746
 Alpha virt. eigenvalues --    0.03899   0.05450   0.20407   0.22755   0.24233
 Alpha virt. eigenvalues --    0.24923   0.26802   0.31555   0.33458   0.41039
 Alpha virt. eigenvalues --    0.43975   0.47651   0.49555   0.60926   0.64729

 Mulliken charges:
               1
     1  C    0.166964
     2  N   -0.408959
     3  N   -0.405213
     4  C    0.034740
     5  H    0.192583
     6  C   -0.197594
     7  H    0.181606
     8  C    0.042416
     9  H    0.201371
    10  H    0.192085
 Sum of Mulliken charges =  -0.00000

 Dipole moment (field-independent basis, Debye):
    X=              2.2066    Y=              0.1974    Z=             -0.0335  Tot=              2.2156
 Quadrupole moment (field-independent basis, Debye-Ang):
   XX=            -29.0729   YY=            -36.1808   ZZ=            -35.5042
   XY=              1.0162   XZ=              0.0286   YZ=              0.1547

 Normal termination of Gaussian 16 at Fri Sep 22 11:12:17 2023.
