 Gaussian 16, Revision A.03,
 Gaussian 16:  ES64L-G16RevA.03 25-Dec-2016

 ----------------
 # 6-31g(d) wb97x
 ----------------

 ---------------------------
 tmpdir/M3_frag_conf_1_2.gjf
 ---------------------------
 Symbolic Z-matrix:
 Charge =  0 Multiplicity = 1

                         Standard orientation:
 ---------------------------------------------------------------------
 Center     Atomic      Atomic             Coordinates (Angstroms)
 Number     Number       Type             X           Y           Z
 ---------------------------------------------------------------------
      1          6           0       -1.327679   -0.027496   -0.012302
      2          7           0       -0.746835    1.176139   -0.025023
      3          7           0       -0.683514   -1.209598    0.026683
      4          6           0        0.654354   -1.158422    0.001159
      5          1           0        1.184808   -2.104669   -0.010493
      6          6           0        1.363897    0.028548   -0.019347
      7          1           0        2.442582    0.033586   -0.063817
      8          6           0        0.597328    1.200455    0.021122
      9          1           0       -2.404596   -0.112984   -0.005463
     10          1           0        1.062246    2.159777    0.124356
 ---------------------------------------------------------------------

 SCF Done:  E(RwB97X) =  -264.248112269     A.U. after   14 cycles

 The electronic state is 1-A.
 Alpha  occ. eigenvalues --  -14.42276 -14.41996 -10.34426 -10.33277 -10.32888
 Alpha  occ. eigenvalues --  -10.29605  -1.11795  -1.01652  -0.92838  -0.78319
 Alpha  occ. eigenvalues --   -0.77950  -0.66006  -0.62421  -0.58720  -0.54324
 Alpha  occ. eigenvalues --   -0.52819  -0.52282  -0.41403  -0.40728  -0.38195
 Alpha  occ. eigenvalues --   -0.35289
 Alpha virt. eigenvalues --    0.04322   0.05646   0.19864   0.23478   0.24731
 Alpha virt. eigenvalues --    0.25211   0.27022   0.32798   0.33807   0.42112
 Alpha virt. eigenvalues --    0.43305   0.47959   0.51243   0.60668   0.65078

 Mulliken charges:
               1
     1  C    0.151679
     2  N   -0.384724
     3  N   -0.385494
     4  C    0.032835
     5  H    0.182518
     6  C   -0.191082
     7  H    0.185325
     8  C    0.032616
     9  H    0.189258
    10  H    0.187068
 Sum of Mulliken charges =  -0.00000

 Dipole moment (field-independent basis, Debye):
    X=              2.3146    Y=              0.0851    Z=              0.0101  Tot=              2.3162
 Quadrupole moment (field-independent basis, Debye-Ang):
   XX=            -29.7732   YY=            -36.5802   ZZ=            -35.3129
   XY=              0.2609   XZ=              0.0060   YZ=              0.3594

 Normal termination of Gaussian 16 at Fri Sep 22 11:14:06 2023.
