 Gaussian 16, Revision A.03,
 Gaussian 16:  ES64L-G16RevA.03 25-Dec-2016

 ----------------
 # 6-31g(d) wb97x
 ----------------

 ---------------------------
 tmpdir/M3_frag_conf_0_1.gjf
 ---------------------------
 Symbolic Z-matrix:
 Charge =  0 Multiplicity = 1

                         Standard orientation:
 ---------------------------------------------------------------------
 Center     Atomic      Atomic             Coordinates (Angstroms)
 Number     Number       Type             X           Y           Z
 ---------------------------------------------------------------------
      1          6           0        1.401788    0.113206   -0.003264
      2          6           0        0.609548    1.277604    0.001224
      3          1           0        1.064599    2.251780    0.023969
      4          6           0        0.786008   -1.133505    0.001177
      5          1           0        1.402528   -2.032125    0.010423
      6          6           0       -0.602172   -1.265260   -0.001766
      7          1           0       -1.067359   -2.246314    0.001347
      8          6           0       -1.385970   -0.111242    0.002693
      9          6           0       -0.795879    1.153407   -0.003562
     10          1           0        2.476656    0.064537   -0.010407
     11          1           0       -2.474629   -0.232565    0.002955
     12          1           0       -1.481736    1.989432   -0.007299
 ---------------------------------------------------------------------

 SCF Done:  E(RwB97X) =  -232.175186066     A.U. after   12 cycles

 The electronic state is 1-A.
 Alpha  occ. eigenvalues --  -10.27740 -10.27399 -10.27241 -10.27169 -10.27040
 Alpha  occ. eigenvalues --  -10.26946  -0.97902  -0.87034  -0.86761  -0.72271
 Alpha  occ. eigenvalues --   -0.71366  -0.63472  -0.57070  -0.54657  -0.52509
 Alpha  occ. eigenvalues --   -0.52160  -0.47385  -0.43911  -0.43824  -0.33844
 Alpha  occ. eigenvalues --   -0.33674
 Alpha virt. eigenvalues --    0.08429   0.08886   0.18701   0.24306   0.24729
 Alpha virt. eigenvalues --    0.26994   0.27475   0.28564   0.29559   0.39684
 Alpha virt. eigenvalues --    0.40038   0.41259   0.41605   0.57707   0.63310

 Mulliken charges:
               1
     1  C   -0.154665
     2  C   -0.169875
     3  H    0.163607
     4  C   -0.162456
     5  H    0.155524
     6  C   -0.153809
     7  H    0.160598
     8  C   -0.161959
     9  C   -0.158936
    10  H    0.162454
    11  H    0.157615
    12  H    0.161902
 Sum of Mulliken charges =  -0.00000

 Dipole moment (field-independent basis, Debye):
    X=             -0.0164    Y=             -0.0599    Z=              0.0141  Tot=              0.0637
 Quadrupole moment (field-independent basis, Debye-Ang):
   XX=            -30.8928   YY=            -31.1713   ZZ=            -38.9007
   XY=             -0.1402   XZ=              0.0156   YZ=              0.0149

 Normal termination of Gaussian 16 at Fri Sep 22 11:12:17 2023.
