 Gaussian 16, Revision A.03,
 Gaussian 16:  ES64L-G16RevA.03 25-Dec-2016

 ----------------
 # 6-31g(d) wb97x
 ----------------

 ---------------------------
 tmpdir/M3_frag_conf_2_1.gjf
 ---------------------------
 Symbolic Z-matrix:
 Charge =  0 Multiplicity = 1

                         Standard orientation:
 ---------------------------------------------------------------------
 Center     Atomic      Atomic             Coordinates (Angstroms)
 Number     Number       Type             X           Y           Z
 ---------------------------------------------------------------------
      1          6           0        1.276057    0.559116    0.005728
      2          6           0        0.158320    1.396977   -0.003506
      3          1           0        0.279489    2.469392   -0.013689
      4          6           0        1.128760   -0.825064    0.001420
      5          1           0        1.994731   -1.478744    0.044061
      6          6           0       -0.148036   -1.370525   -0.010850
      7          1           0       -0.263087   -2.453990    0.007153
      8          6           0       -1.286479   -0.570928   -0.002865
      9          6           0       -1.128717    0.832448    0.011135
     10          1           0        2.321210    0.942155   -0.041306
     11          1           0       -2.271820   -1.046529   -0.008747
     12          1           0       -2.059951    1.435573    0.006148
 ---------------------------------------------------------------------

 SCF Done:  E(RwB97X) =  -232.175873566     A.U. after   13 cycles

 The electronic state is 1-A.
 Alpha  occ. eigenvalues --  -10.27853 -10.27559 -10.27494 -10.27377 -10.27039
 Alpha  occ. eigenvalues --  -10.26980  -0.97985  -0.86911  -0.86806  -0.71795
 Alpha  occ. eigenvalues --   -0.71540  -0.63313  -0.56739  -0.54701  -0.52344
 Alpha  occ. eigenvalues --   -0.52146  -0.47481  -0.44062  -0.43493  -0.33886
 Alpha  occ. eigenvalues --   -0.33740
 Alpha virt. eigenvalues --    0.08542   0.08779   0.18301   0.23999   0.24390
 Alpha virt. eigenvalues --    0.27027   0.27626   0.28038   0.29266   0.39445
 Alpha virt. eigenvalues --    0.40211   0.41049   0.41985   0.57570   0.63234

 Mulliken charges:
               1
     1  C   -0.163594
     2  C   -0.159491
     3  H    0.163568
     4  C   -0.152901
     5  H    0.161729
     6  C   -0.159931
     7  H    0.155024
     8  C   -0.156840
     9  C   -0.168168
    10  H    0.157977
    11  H    0.162724
    12  H    0.159903
 Sum of Mulliken charges =  -0.00000

 Dipole moment (field-independent basis, Debye):
    X=             -0.0040    Y=             -0.0566    Z=             -0.0044  Tot=              0.0570
 Quadrupole moment (field-independent basis, Debye-Ang):
   XX=            -30.8902   YY=            -31.2587   ZZ=            -38.9532
   XY=             -0.0286   XZ=             -0.0049   YZ=             -0.1291

 Normal termination of Gaussian 16 at Fri Sep 22 11:15:57 2023.
