 Gaussian 16, Revision A.03,
 Gaussian 16:  ES64L-G16RevA.03 25-Dec-2016

 ----------------
 # 6-31g(d) wb97x
 ----------------

 ---------------------------
 tmpdir/M3_frag_conf_0_3.gjf
 ---------------------------
 Symbolic Z-matrix:
 Charge =  0 Multiplicity = 1

                         Standard orientation:
 ---------------------------------------------------------------------
 Center     Atomic      Atomic             Coordinates (Angstroms)
 Number     Number       Type             X           Y           Z
 ---------------------------------------------------------------------
      1          6           0       -1.202322    0.681051   -0.012617
      2          6           0        0.001757    1.383042    0.003661
      3          1           0        0.021313    2.463376   -0.014907
      4          6           0        1.204488    0.658324    0.011264
      5          1           0        2.147658    1.198398    0.015987
      6          6           0        1.164107   -0.735800   -0.008216
      7          1           0        2.064996   -1.344934   -0.021564
      8          7           0       -0.008100   -1.394483   -0.003195
      9          6           0       -1.172080   -0.717955    0.010514
     10          1           0       -2.058753   -1.340303    0.029751
     11          1           0       -2.094219    1.172879   -0.014540
 ---------------------------------------------------------------------

 SCF Done:  E(RwB97X) =  -248.207288644     A.U. after   14 cycles

 The electronic state is 1-A.
 Alpha  occ. eigenvalues --  -14.40410 -10.30780 -10.30776 -10.29479 -10.28427
 Alpha  occ. eigenvalues --  -10.27775  -1.06327  -0.92885  -0.89067  -0.75170
 Alpha  occ. eigenvalues --   -0.74520  -0.64512  -0.58872  -0.58290  -0.54038
 Alpha  occ. eigenvalues --   -0.50961  -0.50700  -0.46680  -0.37662  -0.35284
 Alpha  occ. eigenvalues --   -0.34699
 Alpha virt. eigenvalues --    0.06261   0.07471   0.19596   0.24390   0.25329
 Alpha virt. eigenvalues --    0.25534   0.27559   0.28272   0.33666   0.38854
 Alpha virt. eigenvalues --    0.41662   0.42428   0.55152   0.55622   0.62178

 Mulliken charges:
               1
     1  C   -0.174482
     2  C   -0.133917
     3  H    0.176864
     4  C   -0.184259
     5  H    0.167725
     6  C    0.020202
     7  H    0.174566
     8  N   -0.404084
     9  C    0.015318
    10  H    0.175751
    11  H    0.166317
 Sum of Mulliken charges =  -0.00000

 Dipole moment (field-independent basis, Debye):
    X=             -0.0185    Y=              2.1775    Z=             -0.0006  Tot=              2.1776
 Quadrupole moment (field-independent basis, Debye-Ang):
   XX=            -28.5616   YY=            -35.3045   ZZ=            -37.0657
   XY=             -0.0096   XZ=             -0.0447   YZ=             -0.0483

 Normal termination of Gaussian 16 at Fri Sep 22 11:12:17 2023.
