 Gaussian 16, Revision A.03,
 Gaussian 16:  ES64L-G16RevA.03 25-Dec-2016

 ----------------
 # 6-31g(d) wb97x
 ----------------

 ---------------------------
 tmpdir/M3_frag_conf_0_0.gjf
 ---------------------------
 Symbolic Z-matrix:
 Charge =  0 Multiplicity = 1

                         Standard orientation:
 ---------------------------------------------------------------------
 Center     Atomic      Atomic             Coordinates (Angstroms)
 Number     Number       Type             X           Y           Z
 ---------------------------------------------------------------------
      1          6           0        1.246162    0.640153   -0.001979
      2          6           0        0.063708    1.394328   -0.000416
      3          1           0        0.121298    2.476733   -0.006070
      4          6           0       -1.181702    0.756062   -0.000407
      5          1           0       -2.092947    1.351541    0.019735
      6          6           0        1.178732   -0.753886    0.003709
      7          1           0        2.091547   -1.345528   -0.007679
      8          6           0       -0.064187   -1.386837    0.000630
      9          1           0       -0.140740   -2.470862    0.003870
     10          6           0       -1.246384   -0.639305   -0.004501
     11          1           0        2.244875    1.099131    0.006414
     12          1           0       -2.202005   -1.174100    0.001511
 ---------------------------------------------------------------------

 SCF Done:  E(RwB97X) =  -232.177937669     A.U. after   13 cycles

 The electronic state is 1-A.
 Alpha  occ. eigenvalues --  -10.27446 -10.27407 -10.27356 -10.27329 -10.27198
 Alpha  occ. eigenvalues --  -10.27136  -0.97947  -0.86949  -0.86786  -0.71783
 Alpha  occ. eigenvalues --   -0.71651  -0.63376  -0.56929  -0.54617  -0.52419
 Alpha  occ. eigenvalues --   -0.52180  -0.47435  -0.43943  -0.43791  -0.33866
 Alpha  occ. eigenvalues --   -0.33713
 Alpha virt. eigenvalues --    0.08645   0.08713   0.18512   0.24224   0.24513
 Alpha virt. eigenvalues --    0.27042   0.28038   0.28088   0.29164   0.39856
 Alpha virt. eigenvalues --    0.40034   0.41287   0.41591   0.57641   0.63278

 Mulliken charges:
               1
     1  C   -0.160979
     2  C   -0.162253
     3  H    0.160474
     4  C   -0.160759
     5  H    0.161258
     6  C   -0.158022
     7  H    0.160373
     8  C   -0.159842
     9  H    0.158241
    10  C   -0.159752
    11  H    0.160540
    12  H    0.160722
 Sum of Mulliken charges =  -0.00000

 Dipole moment (field-independent basis, Debye):
    X=              0.0052    Y=             -0.0218    Z=              0.0121  Tot=              0.0254
 Quadrupole moment (field-independent basis, Debye-Ang):
   XX=            -30.9655   YY=            -31.1217   ZZ=            -38.9275
   XY=              0.0140   XZ=             -0.0448   YZ=              0.0165

 Normal termination of Gaussian 16 at Fri Sep 22 11:12:17 2023.
