 Gaussian 16, Revision A.03,
 Gaussian 16:  ES64L-G16RevA.03 25-Dec-2016

 ----------------
 # 6-31g(d) wb97x
 ----------------

 ---------------------------
 tmpdir/M3_frag_conf_1_3.gjf
 ---------------------------
 Symbolic Z-matrix:
 Charge =  0 Multiplicity = 1

                         Standard orientation:
 ---------------------------------------------------------------------
 Center     Atomic      Atomic             Coordinates (Angstroms)
 Number     Number       Type             X           Y           Z
 ---------------------------------------------------------------------
      1          6           0       -1.297867    0.458116   -0.022230
      2          6           0       -0.243843    1.369186   -0.003235
      3          1           0       -0.440130    2.434997    0.019952
      4          6           0        1.057748    0.867319    0.004215
      5          1           0        1.912787    1.531566    0.035495
      6          6           0        1.251270   -0.512506   -0.001209
      7          1           0        2.252557   -0.931858   -0.005716
      8          7           0        0.246304   -1.399067   -0.007346
      9          6           0       -0.990502   -0.908587    0.006660
     10          1           0       -1.786606   -1.644010    0.064582
     11          1           0       -2.323571    0.761606    0.031901
 ---------------------------------------------------------------------

 SCF Done:  E(RwB97X) =  -248.212241604     A.U. after   14 cycles

 The electronic state is 1-A.
 Alpha  occ. eigenvalues --  -14.40620 -10.30638 -10.30575 -10.29611 -10.28347
 Alpha  occ. eigenvalues --  -10.28262  -1.07081  -0.93339  -0.88910  -0.74975
 Alpha  occ. eigenvalues --   -0.74764  -0.64520  -0.58563  -0.58303  -0.53500
 Alpha  occ. eigenvalues --   -0.51094  -0.51052  -0.46446  -0.38097  -0.35561
 Alpha  occ. eigenvalues --   -0.35087
 Alpha virt. eigenvalues --    0.06246   0.07585   0.19151   0.24014   0.25446
 Alpha virt. eigenvalues --    0.25633   0.27733   0.28046   0.33818   0.39160
 Alpha virt. eigenvalues --    0.41658   0.42249   0.55498   0.56001   0.62099

 Mulliken charges:
               1
     1  C   -0.177998
     2  C   -0.133731
     3  H    0.177144
     4  C   -0.179109
     5  H    0.170340
     6  C    0.012885
     7  H    0.170249
     8  N   -0.392794
     9  C    0.013961
    10  H    0.167992
    11  H    0.171060
 Sum of Mulliken charges =  -0.00000

 Dipole moment (field-independent basis, Debye):
    X=             -0.3922    Y=              2.1970    Z=              0.0986  Tot=              2.2339
 Quadrupole moment (field-independent basis, Debye-Ang):
   XX=            -28.9151   YY=            -35.3761   ZZ=            -37.0546
   XY=              1.1151   XZ=             -0.1350   YZ=              0.0364

 Normal termination of Gaussian 16 at Fri Sep 22 11:14:07 2023.
