 Gaussian 16, Revision A.03,
 Gaussian 16:  ES64L-G16RevA.03 25-Dec-2016

 ----------------
 # 6-31g(d) wb97x
 ----------------

 --------------------
 tmpdir/M3_ref_47.gjf
 --------------------
 Symbolic Z-matrix:
 Charge =  0 Multiplicity = 1

                         Standard orientation:
 ---------------------------------------------------------------------
 Center     Atomic      Atomic             Coordinates (Angstroms)
 Number     Number       Type             X           Y           Z
 ---------------------------------------------------------------------
      1          6           0       -1.240491   -0.239794   -0.034539
      2          6           0        0.049080    0.560955    0.064125
      3          7           0        1.202547   -0.311920   -0.117265
      4          1           0       -1.254343   -1.073967    0.746282
      5          1           0       -2.096177    0.422712    0.142390
      6          1           0       -1.334761   -0.646104   -1.061772
      7          1           0        0.062729    1.333328   -0.712593
      8          1           0        0.086818    1.067028    1.048231
      9          1           0        1.190162   -1.053632    0.582383
     10          1           0        2.076209    0.207108   -0.101587
 ---------------------------------------------------------------------

 SCF Done:  E(RwB97X) =  -135.127266379     A.U. after   13 cycles

 The electronic state is 1-A.
 Alpha  occ. eigenvalues --  -14.37844 -10.28466 -10.25926  -0.99933  -0.84942
 Alpha  occ. eigenvalues --   -0.71457  -0.59976  -0.56500  -0.52618  -0.46315
 Alpha  occ. eigenvalues --   -0.45978  -0.44436  -0.32186
 Alpha virt. eigenvalues --    0.18087   0.22322   0.23426   0.26174   0.27034
 Alpha virt. eigenvalues --    0.28886   0.29864   0.33549   0.35914   0.63515
 Alpha virt. eigenvalues --    0.66435   0.68092   0.69265   0.78728   0.79227

 Mulliken charges:
               1
     1  C   -0.461872
     2  C   -0.141936
     3  N   -0.742895
     4  H    0.136823
     5  H    0.154804
     6  H    0.169734
     7  H    0.152601
     8  H    0.120970
     9  H    0.301975
    10  H    0.309794
 Sum of Mulliken charges =  -0.00000

 Dipole moment (field-independent basis, Debye):
    X=              0.2322    Y=              0.5479    Z=              1.1211  Tot=              1.2692
 Quadrupole moment (field-independent basis, Debye-Ang):
   XX=            -19.0229   YY=            -20.2955   ZZ=            -21.2040
   XY=              0.6044   XZ=              1.6064   YZ=             -1.8253

 Normal termination of Gaussian 16 at Fri Sep 22 11:09:06 2023.
