 Gaussian 16, Revision A.03,
 Gaussian 16:  ES64L-G16RevA.03 25-Dec-2016

 ----------------
 # 6-31g(d) wb97x
 ----------------

 --------------------
 tmpdir/M3_ref_40.gjf
 --------------------
 Symbolic Z-matrix:
 Charge =  0 Multiplicity = 1

                         Standard orientation:
 ---------------------------------------------------------------------
 Center     Atomic      Atomic             Coordinates (Angstroms)
 Number     Number       Type             X           Y           Z
 ---------------------------------------------------------------------
      1          1           0        1.129862   -0.808271    0.636556
      2          6           0        0.760697    0.001117   -0.004557
      3          6           0       -0.760437    0.000637    0.004256
      4          1           0        1.162892    0.995010    0.390580
      5          1           0        1.115219   -0.196885   -1.036202
      6          1           0       -1.130317   -0.943822   -0.409537
      7          1           0       -1.116633    0.076939    1.049867
      8          1           0       -1.162585    0.866502   -0.629456
 ---------------------------------------------------------------------

 SCF Done:  E(RwB97X) =  -79.7972300539     A.U. after   11 cycles

 The electronic state is 1-A.
 Alpha  occ. eigenvalues --  -10.26092 -10.26074  -0.87883  -0.72433  -0.54414
 Alpha  occ. eigenvalues --   -0.54056  -0.46029  -0.43971  -0.43703
 Alpha virt. eigenvalues --    0.19232   0.25199   0.25263   0.25840   0.28138
 Alpha virt. eigenvalues --    0.28375   0.33629   0.61326   0.66122   0.66185
 Alpha virt. eigenvalues --    0.73870   0.74717   0.78883   0.97461   0.98823

 Mulliken charges:
               1
     1  H    0.156694
     2  C   -0.457840
     3  C   -0.457702
     4  H    0.146930
     5  H    0.154368
     6  H    0.157214
     7  H    0.154602
     8  H    0.145735
 Sum of Mulliken charges =   0.00000

 Dipole moment (field-independent basis, Debye):
    X=              0.0005    Y=             -0.0847    Z=              0.0139  Tot=              0.0859
 Quadrupole moment (field-independent basis, Debye-Ang):
   XX=            -15.7244   YY=            -14.6754   ZZ=            -14.6649
   XY=              0.0103   XZ=              0.0440   YZ=              0.0131

 Normal termination of Gaussian 16 at Fri Sep 22 11:08:51 2023.
