 Gaussian 16, Revision A.03,
 Gaussian 16:  ES64L-G16RevA.03 25-Dec-2016

 ----------------
 # 6-31g(d) wb97x
 ----------------

 --------------------
 tmpdir/M3_ref_16.gjf
 --------------------
 Symbolic Z-matrix:
 Charge =  0 Multiplicity = 1

                         Standard orientation:
 ---------------------------------------------------------------------
 Center     Atomic      Atomic             Coordinates (Angstroms)
 Number     Number       Type             X           Y           Z
 ---------------------------------------------------------------------
      1          1           0        0.142116   -0.457895    0.983563
      2          6           0        0.000256    0.002382   -0.001583
      3          1           0        0.612402   -0.564723   -0.731211
      4          1           0        0.353771    1.045351    0.026301
      5          1           0       -1.109826   -0.037027   -0.269152
 ---------------------------------------------------------------------

 SCF Done:  E(RwB97X) =  -40.4976910640     A.U. after   11 cycles

 The electronic state is 1-A.
 Alpha  occ. eigenvalues --  -10.25716  -0.81229  -0.49478  -0.49207  -0.48775
 Alpha virt. eigenvalues --    0.21083   0.26422   0.27061   0.27403   0.64013
 Alpha virt. eigenvalues --    0.64270   0.65604   0.98792   1.00673   1.01368
 Alpha virt. eigenvalues --    1.04984   1.20199   1.76023   1.76274   2.29825

 Mulliken charges:
               1
     1  H    0.167756
     2  C   -0.658672
     3  H    0.165428
     4  H    0.167624
     5  H    0.157864
 Sum of Mulliken charges =   0.00000

 Dipole moment (field-independent basis, Debye):
    X=              0.0374    Y=             -0.0062    Z=              0.0265  Tot=              0.0463
 Quadrupole moment (field-independent basis, Debye-Ang):
   XX=             -8.2123   YY=             -8.3061   ZZ=             -8.3856
   XY=              0.0027   XZ=             -0.0154   YZ=             -0.0092

 Normal termination of Gaussian 16 at Fri Sep 22 11:08:36 2023.
