 Gaussian 16, Revision A.03,
 Gaussian 16:  ES64L-G16RevA.03 25-Dec-2016

 ----------------
 # 6-31g(d) wb97x
 ----------------

 --------------------
 tmpdir/M3_ref_80.gjf
 --------------------
 Symbolic Z-matrix:
 Charge =  0 Multiplicity = 1

                         Standard orientation:
 ---------------------------------------------------------------------
 Center     Atomic      Atomic             Coordinates (Angstroms)
 Number     Number       Type             X           Y           Z
 ---------------------------------------------------------------------
      1          6           0        0.911171   -0.006518   -0.000149
      2          6           0        2.419135    0.006138    0.000583
      3          1           0        2.836243   -0.497601   -0.881446
      4          6           0        0.197057    1.185109   -0.003550
      5          6           0        0.184374   -1.216541    0.000627
      6          6           0       -1.190648    1.211259    0.000862
      7          1           0        0.746012    2.124413   -0.006192
      8          6           0       -1.212688   -1.208293   -0.000754
      9          6           0       -1.893601    0.008759    0.005882
     10          1           0       -1.721340    2.161058    0.008440
     11          1           0       -1.754335   -2.139785   -0.007230
     12          1           0        2.793335    1.033448   -0.006603
     13          1           0        2.835858   -0.483415    0.891019
     14          1           0        0.778903   -2.144506    0.001167
     15          1           0       -3.003471    0.066910   -0.020157
 ---------------------------------------------------------------------

 SCF Done:  E(RwB97X) =  -271.485404803     A.U. after   13 cycles

 The electronic state is 1-A.
 Alpha  occ. eigenvalues --  -10.27772 -10.27113 -10.27039 -10.27017 -10.26818
 Alpha  occ. eigenvalues --  -10.26471 -10.26447  -0.98294  -0.89628  -0.86728
 Alpha  occ. eigenvalues --   -0.80523  -0.72017  -0.69571  -0.61879  -0.56227
 Alpha  occ. eigenvalues --   -0.55986  -0.52701  -0.52107  -0.50553  -0.48363
 Alpha  occ. eigenvalues --   -0.46088  -0.43528  -0.43009  -0.33686  -0.32542
 Alpha virt. eigenvalues --    0.08561   0.09294   0.18687   0.21765   0.23495
 Alpha virt. eigenvalues --    0.25118   0.25658   0.27242   0.28645   0.30072
 Alpha virt. eigenvalues --    0.30734   0.33766   0.40942   0.41607   0.42261

 Mulliken charges:
               1
     1  C    0.134274
     2  C   -0.544922
     3  H    0.174347
     4  C   -0.203446
     5  C   -0.198974
     6  C   -0.150893
     7  H    0.146466
     8  C   -0.157699
     9  C   -0.169002
    10  H    0.160066
    11  H    0.161194
    12  H    0.167467
    13  H    0.174519
    14  H    0.151440
    15  H    0.155163
 Sum of Mulliken charges =  -0.00000

 Dipole moment (field-independent basis, Debye):
    X=              0.3312    Y=             -0.0039    Z=             -0.0143  Tot=              0.3315
 Quadrupole moment (field-independent basis, Debye-Ang):
   XX=            -37.4450   YY=            -37.9514   ZZ=            -45.0917
   XY=             -0.2391   XZ=              0.0564   YZ=              0.0186

 Normal termination of Gaussian 16 at Fri Sep 22 11:09:39 2023.
