 Gaussian 16, Revision A.03,
 Gaussian 16:  ES64L-G16RevA.03 25-Dec-2016

 ----------------
 # 6-31g(d) wb97x
 ----------------

 --------------------
 tmpdir/M3_ref_32.gjf
 --------------------
 Symbolic Z-matrix:
 Charge =  0 Multiplicity = 1

                         Standard orientation:
 ---------------------------------------------------------------------
 Center     Atomic      Atomic             Coordinates (Angstroms)
 Number     Number       Type             X           Y           Z
 ---------------------------------------------------------------------
      1          1           0       -0.210196   -0.599249    0.889362
      2          6           0        0.002217    0.003799   -0.000030
      3          1           0       -0.212052   -0.606298   -0.884163
      4          1           0        1.097341    0.313386   -0.002242
      5          1           0       -0.688395    0.869368   -0.002777
 ---------------------------------------------------------------------

 SCF Done:  E(RwB97X) =  -40.4978184470     A.U. after   11 cycles

 The electronic state is 1-A.
 Alpha  occ. eigenvalues --  -10.25572  -0.81333  -0.49441  -0.49289  -0.48887
 Alpha virt. eigenvalues --    0.21158   0.26604   0.27144   0.27446   0.63894
 Alpha virt. eigenvalues --    0.64092   0.65636   0.99080   1.00852   1.01462
 Alpha virt. eigenvalues --    1.05630   1.20336   1.75967   1.76210   2.29863

 Mulliken charges:
               1
     1  H    0.167586
     2  C   -0.660458
     3  H    0.167588
     4  H    0.159524
     5  H    0.165760
 Sum of Mulliken charges =   0.00000

 Dipole moment (field-independent basis, Debye):
    X=             -0.0422    Y=             -0.0369    Z=              0.0002  Tot=              0.0560
 Quadrupole moment (field-independent basis, Debye-Ang):
   XX=             -8.1571   YY=             -8.3639   ZZ=             -8.3571
   XY=             -0.0132   XZ=              0.0001   YZ=              0.0001

 Normal termination of Gaussian 16 at Fri Sep 22 11:08:47 2023.
