 Gaussian 16, Revision A.03,
 Gaussian 16:  ES64L-G16RevA.03 25-Dec-2016

 ----------------
 # 6-31g(d) wb97x
 ----------------

 --------------------
 tmpdir/M3_ref_68.gjf
 --------------------
 Symbolic Z-matrix:
 Charge =  0 Multiplicity = 1

                         Standard orientation:
 ---------------------------------------------------------------------
 Center     Atomic      Atomic             Coordinates (Angstroms)
 Number     Number       Type             X           Y           Z
 ---------------------------------------------------------------------
      1          6           0        0.229313   -0.021651   -0.022272
      2          6           0        1.727177   -0.137959   -0.051067
      3          7           0        2.400905    0.993358    0.326251
      4          6           0       -0.454704    1.185309   -0.186918
      5          6           0       -0.500675   -1.196927    0.150598
      6          6           0       -1.843554    1.214836   -0.165492
      7          1           0        0.090341    2.108516   -0.374272
      8          6           0       -1.888494   -1.161091    0.187086
      9          1           0        0.040068   -2.132299    0.263268
     10          6           0       -2.575884    0.042174    0.025733
     11          1           0       -2.381201    2.150733   -0.293128
     12          1           0       -2.447710   -2.081900    0.342185
     13          8           0        2.272849   -1.181741   -0.375727
     14          1           0        1.842729    1.717472    0.753133
     15          1           0        3.379591    1.127100    0.397035
     16          1           0       -3.672020    0.062662    0.007838
 ---------------------------------------------------------------------

 SCF Done:  E(RwB97X) =  -400.841572915     A.U. after   15 cycles

 The electronic state is 1-A.
 Alpha  occ. eigenvalues --  -19.17642 -14.43294 -10.37759 -10.28833 -10.28753
 Alpha  occ. eigenvalues --  -10.28555 -10.28343 -10.28055 -10.27869  -1.15587
 Alpha  occ. eigenvalues --   -1.03524  -0.99481  -0.89148  -0.88183  -0.76782
 Alpha  occ. eigenvalues --   -0.73338  -0.69966  -0.66162  -0.62704  -0.59254
 Alpha  occ. eigenvalues --   -0.56641  -0.54806  -0.53405  -0.52103  -0.51357
 Alpha  occ. eigenvalues --   -0.47728  -0.46204  -0.44610  -0.36962  -0.35782
 Alpha  occ. eigenvalues --   -0.35088  -0.34118
 Alpha virt. eigenvalues --    0.04931   0.07624   0.15959   0.17293   0.19948
 Alpha virt. eigenvalues --    0.22495   0.24937   0.25581   0.27380   0.28766
 Alpha virt. eigenvalues --    0.29249   0.35527   0.39011   0.39642   0.40259

 Mulliken charges:
               1
     1  C    0.014218
     2  C    0.555823
     3  N   -0.788902
     4  C   -0.199660
     5  C   -0.172498
     6  C   -0.165562
     7  H    0.159768
     8  C   -0.166910
     9  H    0.195724
    10  C   -0.151680
    11  H    0.164806
    12  H    0.167706
    13  O   -0.490578
    14  H    0.345767
    15  H    0.362513
    16  H    0.169464
 Sum of Mulliken charges =  -0.00000

 Dipole moment (field-independent basis, Debye):
    X=             -1.3767    Y=              3.1827    Z=              1.4216  Tot=              3.7477
 Quadrupole moment (field-independent basis, Debye-Ang):
   XX=            -46.2679   YY=            -47.2317   ZZ=            -54.4026
   XY=              8.8807   XZ=              3.5102   YZ=             -0.5069

 Normal termination of Gaussian 16 at Fri Sep 22 11:09:30 2023.
