 Gaussian 16, Revision A.03,
 Gaussian 16:  ES64L-G16RevA.03 25-Dec-2016

 ----------------
 # 6-31g(d) wb97x
 ----------------

 --------------------
 tmpdir/M3_ref_61.gjf
 --------------------
 Symbolic Z-matrix:
 Charge =  0 Multiplicity = 1

                         Standard orientation:
 ---------------------------------------------------------------------
 Center     Atomic      Atomic             Coordinates (Angstroms)
 Number     Number       Type             X           Y           Z
 ---------------------------------------------------------------------
      1          1           0       -0.507450   -0.831535   -0.525776
      2          6           0        0.000924    0.006119   -0.008579
      3          1           0       -0.069234   -0.206300    1.066887
      4          1           0        1.108387    0.061720   -0.277065
      5          1           0       -0.537246    0.939402   -0.212569
 ---------------------------------------------------------------------

 SCF Done:  E(RwB97X) =  -40.4973122465     A.U. after   11 cycles

 The electronic state is 1-A.
 Alpha  occ. eigenvalues --  -10.25658  -0.81287  -0.49716  -0.49220  -0.48567
 Alpha virt. eigenvalues --    0.21090   0.26483   0.27055   0.27447   0.63871
 Alpha virt. eigenvalues --    0.64217   0.65731   0.98779   1.00608   1.01521
 Alpha virt. eigenvalues --    1.05449   1.20355   1.76047   1.76223   2.29469

 Mulliken charges:
               1
     1  H    0.165301
     2  C   -0.659971
     3  H    0.165643
     4  H    0.159340
     5  H    0.169686
 Sum of Mulliken charges =   0.00000

 Dipole moment (field-independent basis, Debye):
    X=             -0.0409    Y=             -0.0164    Z=              0.0502  Tot=              0.0668
 Quadrupole moment (field-independent basis, Debye-Ang):
   XX=             -8.1477   YY=             -8.2973   ZZ=             -8.4506
   XY=             -0.0207   XZ=              0.0191   YZ=             -0.0078

 Normal termination of Gaussian 16 at Fri Sep 22 11:09:20 2023.
