 Gaussian 16, Revision A.03,
 Gaussian 16:  ES64L-G16RevA.03 25-Dec-2016

 ----------------
 # 6-31g(d) wb97x
 ----------------

 --------------------
 tmpdir/M3_ref_58.gjf
 --------------------
 Symbolic Z-matrix:
 Charge =  0 Multiplicity = 1

                         Standard orientation:
 ---------------------------------------------------------------------
 Center     Atomic      Atomic             Coordinates (Angstroms)
 Number     Number       Type             X           Y           Z
 ---------------------------------------------------------------------
      1          7           0        0.741526   -0.007112   -0.115318
      2          6           0       -0.704440   -0.006500    0.011365
      3          1           0       -1.026399   -0.128954    1.064431
      4          1           0        1.156170    0.838765    0.275012
      5          1           0        1.160719   -0.831223    0.317204
      6          1           0       -1.064941    0.980302   -0.309466
      7          1           0       -1.189592   -0.770107   -0.608140
 ---------------------------------------------------------------------

 SCF Done:  E(RwB97X) =  -95.8212406993     A.U. after   12 cycles

 The electronic state is 1-A.
 Alpha  occ. eigenvalues --  -14.38071 -10.28027  -0.99389  -0.77498  -0.59827
 Alpha  occ. eigenvalues --   -0.53726  -0.50893  -0.46669  -0.32183
 Alpha virt. eigenvalues --    0.18429   0.24036   0.24937   0.28012   0.29404
 Alpha virt. eigenvalues --    0.34456   0.66185   0.67147   0.69993   0.84978
 Alpha virt. eigenvalues --    0.87541   0.90344   0.97799   1.02883   1.04103

 Mulliken charges:
               1
     1  N   -0.743160
     2  C   -0.325307
     3  H    0.127917
     4  H    0.309134
     5  H    0.307384
     6  H    0.159113
     7  H    0.164920
 Sum of Mulliken charges =  -0.00000

 Dipole moment (field-independent basis, Debye):
    X=             -0.1302    Y=              0.0830    Z=              1.3618  Tot=              1.3705
 Quadrupole moment (field-independent basis, Debye-Ang):
   XX=            -13.4412   YY=            -12.2358   ZZ=            -15.2646
   XY=              0.0554   XZ=              2.0699   YZ=             -0.0013

 Normal termination of Gaussian 16 at Fri Sep 22 11:09:17 2023.
