 Gaussian 16, Revision A.03,
 Gaussian 16:  ES64L-G16RevA.03 25-Dec-2016

 ----------------
 # 6-31g(d) wb97x
 ----------------

 --------------------
 tmpdir/M3_ref_38.gjf
 --------------------
 Symbolic Z-matrix:
 Charge =  0 Multiplicity = 1

                         Standard orientation:
 ---------------------------------------------------------------------
 Center     Atomic      Atomic             Coordinates (Angstroms)
 Number     Number       Type             X           Y           Z
 ---------------------------------------------------------------------
      1          7           0        1.201296   -0.312064   -0.117931
      2          6           0        0.051514    0.558989    0.062953
      3          6           0       -1.240793   -0.237576   -0.033753
      4          1           0        1.188908   -1.054807    0.577842
      5          1           0        2.070231    0.209302   -0.088099
      6          1           0        0.065750    1.328143   -0.718466
      7          1           0        0.084947    1.073912    1.044238
      8          1           0       -2.095392    0.425545    0.139364
      9          1           0       -1.334217   -0.653675   -1.055581
     10          1           0       -1.253624   -1.072451    0.751012
 ---------------------------------------------------------------------

 SCF Done:  E(RwB97X) =  -135.127425483     A.U. after   13 cycles

 The electronic state is 1-A.
 Alpha  occ. eigenvalues --  -14.37838 -10.28463 -10.25932  -1.00118  -0.84961
 Alpha  occ. eigenvalues --   -0.71467  -0.60020  -0.56586  -0.52635  -0.46413
 Alpha  occ. eigenvalues --   -0.45966  -0.44349  -0.32270
 Alpha virt. eigenvalues --    0.18108   0.22338   0.23410   0.26155   0.27078
 Alpha virt. eigenvalues --    0.28893   0.29823   0.33570   0.36063   0.63560
 Alpha virt. eigenvalues --    0.66386   0.68095   0.69287   0.78706   0.79264

 Mulliken charges:
               1
     1  N   -0.740899
     2  C   -0.142191
     3  C   -0.462112
     4  H    0.302082
     5  H    0.309943
     6  H    0.152172
     7  H    0.120047
     8  H    0.155471
     9  H    0.169978
    10  H    0.135508
 Sum of Mulliken charges =  -0.00000

 Dipole moment (field-independent basis, Debye):
    X=              0.2323    Y=              0.5394    Z=              1.1313  Tot=              1.2746
 Quadrupole moment (field-independent basis, Debye-Ang):
   XX=            -19.0393   YY=            -20.2869   ZZ=            -21.2315
   XY=              0.5980   XZ=              1.6540   YZ=             -1.7972

 Normal termination of Gaussian 16 at Fri Sep 22 11:08:57 2023.
