 Gaussian 16, Revision A.03,
 Gaussian 16:  ES64L-G16RevA.03 25-Dec-2016

 ----------------
 # 6-31g(d) wb97x
 ----------------

 --------------------
 tmpdir/M3_ref_72.gjf
 --------------------
 Symbolic Z-matrix:
 Charge =  0 Multiplicity = 1

                         Standard orientation:
 ---------------------------------------------------------------------
 Center     Atomic      Atomic             Coordinates (Angstroms)
 Number     Number       Type             X           Y           Z
 ---------------------------------------------------------------------
      1          6           0       -0.166968    0.392213   -0.014518
      2          7           0        1.086753   -0.159409   -0.021802
      3          1           0        1.850068    0.477840    0.149642
      4          1           0       -0.188946    1.479717   -0.021231
      5          8           0       -1.199933   -0.259576    0.013716
      6          1           0        1.332875   -1.118367    0.001583
 ---------------------------------------------------------------------

 SCF Done:  E(RwB97X) =  -169.839762499     A.U. after   16 cycles

 The electronic state is 1-A.
 Alpha  occ. eigenvalues --  -19.18145 -14.43863 -10.37537  -1.15387  -1.03501
 Alpha  occ. eigenvalues --   -0.75329  -0.65803  -0.60328  -0.51709  -0.50808
 Alpha  occ. eigenvalues --   -0.37157  -0.35534
 Alpha virt. eigenvalues --    0.12318   0.17900   0.20841   0.27676   0.36513
 Alpha virt. eigenvalues --    0.44318   0.64268   0.65717   0.75290   0.79432
 Alpha virt. eigenvalues --    0.81089   0.83179   0.95743   0.98113   0.99608

 Mulliken charges:
               1
     1  C    0.344154
     2  N   -0.738737
     3  H    0.342516
     4  H    0.135358
     5  O   -0.449645
     6  H    0.366355
 Sum of Mulliken charges =  -0.00000

 Dipole moment (field-independent basis, Debye):
    X=              3.8062    Y=              0.9803    Z=              0.2730  Tot=              3.9399
 Quadrupole moment (field-independent basis, Debye-Ang):
   XX=            -17.3428   YY=            -14.7537   ZZ=            -18.3908
   XY=             -1.4435   XZ=              0.6970   YZ=              0.1443

 Normal termination of Gaussian 16 at Fri Sep 22 11:09:10 2023.
