 Gaussian 16, Revision A.03,
 Gaussian 16:  ES64L-G16RevA.03 25-Dec-2016

 ----------------
 # 6-31g(d) wb97x
 ----------------

 --------------------
 tmpdir/M3_ref_21.gjf
 --------------------
 Symbolic Z-matrix:
 Charge =  0 Multiplicity = 1

                         Standard orientation:
 ---------------------------------------------------------------------
 Center     Atomic      Atomic             Coordinates (Angstroms)
 Number     Number       Type             X           Y           Z
 ---------------------------------------------------------------------
      1          6           0       -1.200672   -0.228317    0.017540
      2          7           0        0.000613    0.572730   -0.150454
      3          6           0        1.196883   -0.225077    0.019202
      4          1           0       -2.100176    0.384821   -0.151246
      5          1           0       -1.179156   -1.052225   -0.705790
      6          1           0       -1.253033   -0.670616    1.032585
      7          1           0       -0.014531    1.362773    0.491226
      8          1           0        1.277749   -0.667363    1.031133
      9          1           0        2.083043    0.395068   -0.153840
     10          1           0        1.204550   -1.041207   -0.711341
 ---------------------------------------------------------------------

 SCF Done:  E(RwB97X) =  -135.120991705     A.U. after   13 cycles

 The electronic state is 1-A.
 Alpha  occ. eigenvalues --  -14.38748 -10.28023 -10.27920  -1.02302  -0.82018
 Alpha  occ. eigenvalues --   -0.74497  -0.59671  -0.54953  -0.53434  -0.48674
 Alpha  occ. eigenvalues --   -0.46885  -0.45922  -0.31098
 Alpha virt. eigenvalues --    0.18165   0.22998   0.25217   0.25371   0.26456
 Alpha virt. eigenvalues --    0.29185   0.29656   0.31518   0.36793   0.63743
 Alpha virt. eigenvalues --    0.64329   0.68546   0.69261   0.70538   0.84183

 Mulliken charges:
               1
     1  C   -0.323844
     2  N   -0.550155
     3  C   -0.324498
     4  H    0.162187
     5  H    0.159714
     6  H    0.123781
     7  H    0.306123
     8  H    0.123583
     9  H    0.162849
    10  H    0.160259
 Sum of Mulliken charges =   0.00000

 Dipole moment (field-independent basis, Debye):
    X=             -0.0062    Y=             -0.1700    Z=              1.0241  Tot=              1.0381
 Quadrupole moment (field-independent basis, Debye-Ang):
   XX=            -19.5510   YY=            -20.0003   ZZ=            -21.6206
   XY=             -0.0716   XZ=             -0.0185   YZ=              2.1055

 Normal termination of Gaussian 16 at Fri Sep 22 11:08:41 2023.
