 Gaussian 16, Revision A.03,
 Gaussian 16:  ES64L-G16RevA.03 25-Dec-2016

 ----------------
 # 6-31g(d) wb97x
 ----------------

 --------------------
 tmpdir/M3_ref_48.gjf
 --------------------
 Symbolic Z-matrix:
 Charge =  0 Multiplicity = 1

                         Standard orientation:
 ---------------------------------------------------------------------
 Center     Atomic      Atomic             Coordinates (Angstroms)
 Number     Number       Type             X           Y           Z
 ---------------------------------------------------------------------
      1          1           0       -0.181585   -0.444295    0.983168
      2          6           0       -0.001346    0.002397   -0.000712
      3          1           0       -0.575808   -0.577934   -0.748515
      4          1           0       -0.355921    1.044889   -0.003974
      5          1           0        1.121392   -0.037042   -0.226408
 ---------------------------------------------------------------------

 SCF Done:  E(RwB97X) =  -40.4975950411     A.U. after   11 cycles

 The electronic state is 1-A.
 Alpha  occ. eigenvalues --  -10.25721  -0.81227  -0.49515  -0.49175  -0.48768
 Alpha virt. eigenvalues --    0.21073   0.26343   0.27108   0.27433   0.63992
 Alpha virt. eigenvalues --    0.64264   0.65632   0.98595   1.00769   1.01436
 Alpha virt. eigenvalues --    1.04996   1.20200   1.76037   1.76245   2.29683

 Mulliken charges:
               1
     1  H    0.168242
     2  C   -0.658483
     3  H    0.165694
     4  H    0.167828
     5  H    0.156719
 Sum of Mulliken charges =   0.00000

 Dipole moment (field-independent basis, Debye):
    X=             -0.0392    Y=             -0.0066    Z=              0.0226  Tot=              0.0457
 Quadrupole moment (field-independent basis, Debye-Ang):
   XX=             -8.2284   YY=             -8.3007   ZZ=             -8.3757
   XY=             -0.0015   XZ=              0.0145   YZ=             -0.0102

 Normal termination of Gaussian 16 at Fri Sep 22 11:08:55 2023.
