 Gaussian 16, Revision A.03,
 Gaussian 16:  ES64L-G16RevA.03 25-Dec-2016

 ----------------
 # 6-31g(d) wb97x
 ----------------

 --------------------
 tmpdir/M3_ref_57.gjf
 --------------------
 Symbolic Z-matrix:
 Charge =  0 Multiplicity = 1

                         Standard orientation:
 ---------------------------------------------------------------------
 Center     Atomic      Atomic             Coordinates (Angstroms)
 Number     Number       Type             X           Y           Z
 ---------------------------------------------------------------------
      1          6           0        2.419452   -0.010559    0.012056
      2          6           0        0.905199   -0.004105   -0.024405
      3          6           0        0.202751    1.201888   -0.011734
      4          6           0        0.187442   -1.200420   -0.018180
      5          1           0        0.764003    2.132612   -0.014430
      6          6           0       -1.186509    1.210636   -0.001024
      7          1           0        0.723234   -2.147717   -0.033190
      8          6           0       -1.201058   -1.195768    0.008353
      9          1           0       -1.708293    2.164598    0.045707
     10          6           0       -1.900970    0.010105    0.002509
     11          1           0       -1.765494   -2.123738    0.025749
     12          1           0        2.883945    0.841629   -0.587671
     13          1           0        2.790616   -0.999849   -0.321324
     14          1           0        2.741361    0.104768    1.055965
     15          1           0       -2.987213   -0.042956    0.023744
 ---------------------------------------------------------------------

 SCF Done:  E(RwB97X) =  -271.484328077     A.U. after   13 cycles

 The electronic state is 1-A.
 Alpha  occ. eigenvalues --  -10.27770 -10.27103 -10.27022 -10.26822 -10.26731
 Alpha  occ. eigenvalues --  -10.26585 -10.26559  -0.98386  -0.89532  -0.86793
 Alpha  occ. eigenvalues --   -0.80338  -0.71985  -0.69577  -0.62012  -0.56305
 Alpha  occ. eigenvalues --   -0.55906  -0.52371  -0.52067  -0.50591  -0.48475
 Alpha  occ. eigenvalues --   -0.45978  -0.43516  -0.43045  -0.33699  -0.32506
 Alpha virt. eigenvalues --    0.08897   0.09053   0.18748   0.21374   0.23241
 Alpha virt. eigenvalues --    0.24680   0.26176   0.27281   0.28691   0.29501
 Alpha virt. eigenvalues --    0.30842   0.33591   0.40705   0.41941   0.43248

 Mulliken charges:
               1
     1  C   -0.536978
     2  C    0.130327
     3  C   -0.193904
     4  C   -0.198548
     5  H    0.150786
     6  C   -0.160344
     7  H    0.148843
     8  C   -0.156541
     9  H    0.157636
    10  C   -0.165055
    11  H    0.157518
    12  H    0.162991
    13  H    0.165562
    14  H    0.179582
    15  H    0.158125
 Sum of Mulliken charges =  -0.00000

 Dipole moment (field-independent basis, Debye):
    X=              0.2818    Y=             -0.0112    Z=              0.1335  Tot=              0.3121
 Quadrupole moment (field-independent basis, Debye-Ang):
   XX=            -37.7126   YY=            -37.8593   ZZ=            -45.1318
   XY=              0.2563   XZ=              0.0327   YZ=              0.0049

 Normal termination of Gaussian 16 at Fri Sep 22 11:09:14 2023.
