 Gaussian 16, Revision A.03,
 Gaussian 16:  ES64L-G16RevA.03 25-Dec-2016

 ----------------
 # 6-31g(d) wb97x
 ----------------

 --------------------
 tmpdir/M3_ref_64.gjf
 --------------------
 Symbolic Z-matrix:
 Charge =  0 Multiplicity = 1

                         Standard orientation:
 ---------------------------------------------------------------------
 Center     Atomic      Atomic             Coordinates (Angstroms)
 Number     Number       Type             X           Y           Z
 ---------------------------------------------------------------------
      1          6           0        0.535354    0.256318    0.087411
      2          6           0        2.021991    0.466426    0.148384
      3          6           0       -0.388837    1.300018   -0.003712
      4          6           0        0.074123   -1.059454    0.094482
      5          6           0       -1.749856    1.029764   -0.073170
      6          1           0       -0.051893    2.333224   -0.062372
      7          6           0       -1.287947   -1.325027    0.040666
      8          1           0        0.801390   -1.864380    0.150995
      9          6           0       -2.214760   -0.285998   -0.047776
     10          1           0       -2.473556    1.837514   -0.144283
     11          1           0       -1.637793   -2.355368    0.066582
     12          8           0        2.797305   -0.394373   -0.239629
     13          1           0        2.329772    1.409891    0.565831
     14          1           0       -3.286765   -0.498182   -0.137430
 ---------------------------------------------------------------------

 SCF Done:  E(RwB97X) =  -345.471800999     A.U. after   15 cycles

 The electronic state is 1-A.
 Alpha  occ. eigenvalues --  -19.21998 -10.36549 -10.29254 -10.29051 -10.28863
 Alpha  occ. eigenvalues --  -10.28653 -10.28455 -10.28401  -1.16903  -1.00047
 Alpha  occ. eigenvalues --   -0.89874  -0.88577  -0.77654  -0.73758  -0.69817
 Alpha  occ. eigenvalues --   -0.64367  -0.59478  -0.57159  -0.54882  -0.54299
 Alpha  occ. eigenvalues --   -0.53634  -0.51159  -0.47492  -0.46811  -0.44953
 Alpha  occ. eigenvalues --   -0.36361  -0.35405  -0.34972
 Alpha virt. eigenvalues --    0.02452   0.07451   0.12436   0.18352   0.22015
 Alpha virt. eigenvalues --    0.24712   0.25195   0.26120   0.28110   0.28614
 Alpha virt. eigenvalues --    0.35262   0.35967   0.39405   0.40288   0.43181

 Mulliken charges:
               1
     1  C    0.021164
     2  C    0.199594
     3  C   -0.190431
     4  C   -0.169692
     5  C   -0.165137
     6  H    0.167090
     7  C   -0.165479
     8  H    0.191722
     9  C   -0.149040
    10  H    0.168046
    11  H    0.168780
    12  O   -0.391235
    13  H    0.142042
    14  H    0.172576
 Sum of Mulliken charges =  -0.00000

 Dipole moment (field-independent basis, Debye):
    X=             -2.5747    Y=              1.3110    Z=              0.6562  Tot=              2.9629
 Quadrupole moment (field-independent basis, Debye-Ang):
   XX=            -48.6779   YY=            -39.9576   ZZ=            -48.1805
   XY=              3.8190   XZ=              2.4606   YZ=             -0.4191

 Normal termination of Gaussian 16 at Fri Sep 22 11:09:18 2023.
