 Gaussian 16, Revision A.03,
 Gaussian 16:  ES64L-G16RevA.03 25-Dec-2016

 ----------------
 # 6-31g(d) wb97x
 ----------------

 -------------------
 tmpdir/M3_ref_7.gjf
 -------------------
 Symbolic Z-matrix:
 Charge =  0 Multiplicity = 1

                         Standard orientation:
 ---------------------------------------------------------------------
 Center     Atomic      Atomic             Coordinates (Angstroms)
 Number     Number       Type             X           Y           Z
 ---------------------------------------------------------------------
      1          1           0       -1.129955   -0.871467    0.547118
      2          6           0       -0.761047    0.000959   -0.005207
      3          6           0        0.760715    0.001610    0.004498
      4          1           0       -1.114108   -0.083607   -1.050966
      5          1           0       -1.160714    0.949550    0.495547
      6          1           0        1.129695   -0.894614   -0.508464
      7          1           0        1.112989   -0.040545    1.054647
      8          1           0        1.164080    0.925268   -0.533630
 ---------------------------------------------------------------------

 SCF Done:  E(RwB97X) =  -79.7971994365     A.U. after   12 cycles

 The electronic state is 1-A.
 Alpha  occ. eigenvalues --  -10.26090 -10.26070  -0.87880  -0.72423  -0.54443
 Alpha  occ. eigenvalues --   -0.54048  -0.45989  -0.43992  -0.43703
 Alpha virt. eigenvalues --    0.19224   0.25224   0.25264   0.25857   0.28129
 Alpha virt. eigenvalues --    0.28367   0.33589   0.61334   0.66151   0.66187
 Alpha virt. eigenvalues --    0.73853   0.74679   0.78852   0.97497   0.98855

 Mulliken charges:
               1
     1  H    0.156833
     2  C   -0.457708
     3  C   -0.457970
     4  H    0.154806
     5  H    0.146196
     6  H    0.156630
     7  H    0.154309
     8  H    0.146905
 Sum of Mulliken charges =  -0.00000

 Dipole moment (field-independent basis, Debye):
    X=              0.0008    Y=             -0.0856    Z=              0.0008  Tot=              0.0856
 Quadrupole moment (field-independent basis, Debye-Ang):
   XX=            -15.7363   YY=            -14.6820   ZZ=            -14.6506
   XY=              0.0050   XZ=             -0.0513   YZ=             -0.0018

 Normal termination of Gaussian 16 at Fri Sep 22 11:08:46 2023.
