 Gaussian 16, Revision A.03,
 Gaussian 16:  ES64L-G16RevA.03 25-Dec-2016

 ----------------
 # 6-31g(d) wb97x
 ----------------

 --------------------
 tmpdir/M3_ref_20.gjf
 --------------------
 Symbolic Z-matrix:
 Charge =  0 Multiplicity = 1

                         Standard orientation:
 ---------------------------------------------------------------------
 Center     Atomic      Atomic             Coordinates (Angstroms)
 Number     Number       Type             X           Y           Z
 ---------------------------------------------------------------------
      1          7           0       -0.743337    0.002059   -0.113643
      2          6           0        0.705061    0.000751    0.011219
      3          1           0       -1.128878    0.844376    0.307998
      4          1           0       -1.151321   -0.834110    0.289012
      5          1           0        1.100372   -0.895738   -0.481178
      6          1           0        1.019089   -0.031501    1.074011
      7          1           0        1.133733    0.898056   -0.461651
 ---------------------------------------------------------------------

 SCF Done:  E(RwB97X) =  -95.8215644237     A.U. after   13 cycles

 The electronic state is 1-A.
 Alpha  occ. eigenvalues --  -14.37954 -10.28045  -0.99492  -0.77379  -0.60197
 Alpha  occ. eigenvalues --   -0.53573  -0.50539  -0.47028  -0.32179
 Alpha virt. eigenvalues --    0.18457   0.24247   0.25498   0.27557   0.29062
 Alpha virt. eigenvalues --    0.34237   0.66055   0.67758   0.69766   0.84863
 Alpha virt. eigenvalues --    0.87310   0.89565   0.97723   1.02622   1.04792

 Mulliken charges:
               1
     1  N   -0.741720
     2  C   -0.328273
     3  H    0.307626
     4  H    0.309954
     5  H    0.162374
     6  H    0.127391
     7  H    0.162648
 Sum of Mulliken charges =  -0.00000

 Dipole moment (field-independent basis, Debye):
    X=              0.1615    Y=             -0.0155    Z=              1.3589  Tot=              1.3686
 Quadrupole moment (field-independent basis, Debye-Ang):
   XX=            -13.6208   YY=            -12.1333   ZZ=            -15.2648
   XY=              0.0769   XZ=             -2.0577   YZ=              0.0231

 Normal termination of Gaussian 16 at Fri Sep 22 11:08:36 2023.
