 Gaussian 16, Revision A.03,
 Gaussian 16:  ES64L-G16RevA.03 25-Dec-2016

 ----------------
 # 6-31g(d) wb97x
 ----------------

 --------------------
 tmpdir/M3_ref_74.gjf
 --------------------
 Symbolic Z-matrix:
 Charge =  0 Multiplicity = 1

                         Standard orientation:
 ---------------------------------------------------------------------
 Center     Atomic      Atomic             Coordinates (Angstroms)
 Number     Number       Type             X           Y           Z
 ---------------------------------------------------------------------
      1          1           0       -2.741888    0.869674   -0.209336
      2          7           0       -2.331752   -0.032794   -0.021001
      3          6           0       -0.917805   -0.047244    0.009636
      4          6           0       -0.186070   -1.234342   -0.006621
      5          6           0       -0.266316    1.183906    0.012210
      6          1           0       -0.687871   -2.187833   -0.018983
      7          6           0        1.210092   -1.183526   -0.007240
      8          1           0       -0.836667    2.110342    0.027296
      9          6           0        1.121244    1.216482    0.005683
     10          6           0        1.885092    0.056118   -0.000402
     11          1           0        1.630001    2.178151    0.008974
     12          1           0       -2.937366   -0.715050    0.274925
     13          1           0        1.843313   -2.085506   -0.014141
     14          1           0        2.975322    0.111419   -0.001323
 ---------------------------------------------------------------------

 SCF Done:  E(RwB97X) =  -287.511368843     A.U. after   14 cycles

 The electronic state is 1-A.
 Alpha  occ. eigenvalues --  -14.40233 -10.31037 -10.27047 -10.26469 -10.25979
 Alpha  occ. eigenvalues --  -10.25846 -10.25586  -1.03512  -0.95824  -0.86423
 Alpha  occ. eigenvalues --   -0.84660  -0.72432  -0.71047  -0.63630  -0.61588
 Alpha  occ. eigenvalues --   -0.58040  -0.53095  -0.52927  -0.51718  -0.48422
 Alpha  occ. eigenvalues --   -0.45087  -0.43116  -0.39822  -0.33328  -0.28201
 Alpha virt. eigenvalues --    0.09302   0.10992   0.18798   0.19971   0.23142
 Alpha virt. eigenvalues --    0.26127   0.27164   0.28415   0.29539   0.30631
 Alpha virt. eigenvalues --    0.36276   0.40692   0.42522   0.45509   0.45908

 Mulliken charges:
               1
     1  H    0.336160
     2  N   -0.850110
     3  C    0.336137
     4  C   -0.202705
     5  C   -0.216414
     6  H    0.150615
     7  C   -0.167984
     8  H    0.146076
     9  C   -0.159079
    10  C   -0.173488
    11  H    0.151655
    12  H    0.340786
    13  H    0.155752
    14  H    0.152599
 Sum of Mulliken charges =  -0.00000

 Dipole moment (field-independent basis, Debye):
    X=             -1.4516    Y=              0.1484    Z=              0.2635  Tot=              1.4828
 Quadrupole moment (field-independent basis, Debye-Ang):
   XX=            -32.4030   YY=            -36.0497   ZZ=            -45.6388
   XY=             -0.3848   XZ=             -0.8712   YZ=             -0.8124

 Normal termination of Gaussian 16 at Fri Sep 22 11:09:53 2023.
