 Gaussian 16, Revision A.03,
 Gaussian 16:  ES64L-G16RevA.03 25-Dec-2016

 ----------------
 # 6-31g(d) wb97x
 ----------------

 --------------------
 tmpdir/M3_ref_87.gjf
 --------------------
 Symbolic Z-matrix:
 Charge =  0 Multiplicity = 1

                         Standard orientation:
 ---------------------------------------------------------------------
 Center     Atomic      Atomic             Coordinates (Angstroms)
 Number     Number       Type             X           Y           Z
 ---------------------------------------------------------------------
      1          7           0       -2.230697   -0.035617    0.005966
      2          6           0       -0.857346   -0.062406    0.000798
      3          7           0       -0.199899   -1.219234   -0.002915
      4          7           0       -0.308724    1.168385   -0.007244
      5          6           0        1.138987   -1.161389   -0.005407
      6          6           0        1.015931    1.200656   -0.002137
      7          6           0        1.809796    0.059398    0.004567
      8          1           0        1.468852    2.191457    0.002139
      9          1           0        2.890607    0.127500    0.038947
     10          1           0       -2.913125   -0.741368    0.012197
     11          1           0       -2.570406    0.914192   -0.003712
     12          1           0        1.655100   -2.104079   -0.007140
 ---------------------------------------------------------------------

 SCF Done:  E(RwB97X) =  -319.604452099     A.U. after   15 cycles

 The electronic state is 1-A.
 Alpha  occ. eigenvalues --  -14.41808 -14.40219 -14.39960 -10.37380 -10.32027
 Alpha  occ. eigenvalues --  -10.31880 -10.27116  -1.12747  -1.02572  -1.00996
 Alpha  occ. eigenvalues --   -0.89700  -0.78001  -0.76243  -0.66544  -0.64518
 Alpha  occ. eigenvalues --   -0.58772  -0.57755  -0.54899  -0.52670  -0.51362
 Alpha  occ. eigenvalues --   -0.42854  -0.41134  -0.40542  -0.34266  -0.31319
 Alpha virt. eigenvalues --    0.05727   0.09412   0.20183   0.21106   0.24273
 Alpha virt. eigenvalues --    0.26000   0.26920   0.27671   0.33555   0.35465
 Alpha virt. eigenvalues --    0.42659   0.43976   0.46446   0.49647   0.56628

 Mulliken charges:
               1
     1  N   -0.801592
     2  C    0.621183
     3  N   -0.455429
     4  N   -0.461736
     5  C    0.042430
     6  C    0.047701
     7  C   -0.230870
     8  H    0.175050
     9  H    0.169501
    10  H    0.357755
    11  H    0.356330
    12  H    0.179677
 Sum of Mulliken charges =  -0.00000

 Dipole moment (field-independent basis, Debye):
    X=              0.1249    Y=              0.1811    Z=              0.0319  Tot=              0.2222
 Quadrupole moment (field-independent basis, Debye-Ang):
   XX=            -28.0342   YY=            -40.8951   ZZ=            -42.2890
   XY=              0.1481   XZ=              0.0660   YZ=              0.0032

 Normal termination of Gaussian 16 at Fri Sep 22 11:10:07 2023.
