 Gaussian 16, Revision A.03,
 Gaussian 16:  ES64L-G16RevA.03 25-Dec-2016

 ----------------
 # 6-31g(d) wb97x
 ----------------

 --------------------
 tmpdir/M3_ref_70.gjf
 --------------------
 Symbolic Z-matrix:
 Charge =  0 Multiplicity = 1

                         Standard orientation:
 ---------------------------------------------------------------------
 Center     Atomic      Atomic             Coordinates (Angstroms)
 Number     Number       Type             X           Y           Z
 ---------------------------------------------------------------------
      1          7           0       -0.002447   -0.016676   -0.018178
      2          1           0       -0.077112    0.988038    0.037536
      3          1           0       -0.826845   -0.502567    0.045796
      4          1           0        0.921089   -0.368739    0.043915
 ---------------------------------------------------------------------

 SCF Done:  E(RwB97X) =  -56.5168009633     A.U. after   13 cycles

 The electronic state is 1-A.
 Alpha  occ. eigenvalues --  -14.35888  -0.95474  -0.59935  -0.56422  -0.32438
 Alpha virt. eigenvalues --    0.19843   0.28541   0.29878   0.79108   0.83765
 Alpha virt. eigenvalues --    0.86671   0.93402   1.05989   1.10352   1.21657
 Alpha virt. eigenvalues --    1.80058   1.81840   2.29163   2.42942   2.53541

 Mulliken charges:
               1
     1  N   -0.988036
     2  H    0.318383
     3  H    0.336077
     4  H    0.333576
 Sum of Mulliken charges =   0.00000

 Dipole moment (field-independent basis, Debye):
    X=              0.0218    Y=              0.1323    Z=              0.3611  Tot=              0.3852
 Quadrupole moment (field-independent basis, Debye-Ang):
   XX=             -5.2225   YY=             -5.7201   ZZ=             -9.2316
   XY=              0.0315   XZ=             -0.0041   YZ=             -0.0141

 Normal termination of Gaussian 16 at Fri Sep 22 11:09:35 2023.
