 Gaussian 16, Revision A.03,
 Gaussian 16:  ES64L-G16RevA.03 25-Dec-2016

 ----------------
 # 6-31g(d) wb97x
 ----------------

 --------------------
 tmpdir/M3_ref_60.gjf
 --------------------
 Symbolic Z-matrix:
 Charge =  0 Multiplicity = 1

                         Standard orientation:
 ---------------------------------------------------------------------
 Center     Atomic      Atomic             Coordinates (Angstroms)
 Number     Number       Type             X           Y           Z
 ---------------------------------------------------------------------
      1          7           0       -2.754206   -0.449083   -0.326542
      2          6           0       -1.899395    0.543247    0.299114
      3          6           0       -0.423862    0.247794    0.126361
      4          6           0        0.042996   -1.067012    0.162958
      5          6           0        0.497945    1.284834   -0.019263
      6          1           0       -0.676721   -1.873165    0.278642
      7          6           0        1.400739   -1.338445    0.048534
      8          1           0        0.146331    2.314298   -0.054478
      9          6           0        1.857317    1.018420   -0.118200
     10          1           0        1.740685   -2.370062    0.117008
     11          6           0        2.319820   -0.296795   -0.099772
     12          1           0        2.581148    1.822069   -0.219371
     13          1           0       -3.720733   -0.368919   -0.011588
     14          1           0       -2.715071   -0.396651   -1.345206
     15          1           0       -2.114976    1.565345   -0.070266
     16          1           0       -2.128305    0.548011    1.373474
     17          1           0        3.393726   -0.449602   -0.180814
 ---------------------------------------------------------------------

 SCF Done:  E(RwB97X) =  -326.814859953     A.U. after   13 cycles

 The electronic state is 1-A.
 Alpha  occ. eigenvalues --  -14.38918 -10.29414 -10.27029 -10.26567 -10.26535
 Alpha  occ. eigenvalues --  -10.26485 -10.26419 -10.25861  -1.01313  -0.97310
 Alpha  occ. eigenvalues --   -0.87676  -0.86357  -0.78033  -0.71572  -0.69045
 Alpha  occ. eigenvalues --   -0.62422  -0.59838  -0.57236  -0.55348  -0.52287
 Alpha  occ. eigenvalues --   -0.51705  -0.50780  -0.49267  -0.45946  -0.42942
 Alpha  occ. eigenvalues --   -0.42876  -0.33902  -0.33280  -0.31892
 Alpha virt. eigenvalues --    0.08973   0.09337   0.18464   0.20022   0.23149
 Alpha virt. eigenvalues --    0.23842   0.25921   0.27024   0.27304   0.29720
 Alpha virt. eigenvalues --    0.30132   0.30603   0.35134   0.35710   0.41242

 Mulliken charges:
               1
     1  N   -0.746781
     2  C   -0.207598
     3  C    0.099411
     4  C   -0.182412
     5  C   -0.203544
     6  H    0.176864
     7  C   -0.162315
     8  H    0.146517
     9  C   -0.158654
    10  H    0.156779
    11  C   -0.162401
    12  H    0.155354
    13  H    0.314297
    14  H    0.313543
    15  H    0.133116
    16  H    0.171204
    17  H    0.156620
 Sum of Mulliken charges =  -0.00000

 Dipole moment (field-independent basis, Debye):
    X=             -1.0451    Y=              0.9334    Z=             -0.3342  Tot=              1.4405
 Quadrupole moment (field-independent basis, Debye-Ang):
   XX=            -38.7119   YY=            -45.9466   ZZ=            -48.8493
   XY=             -2.1517   XZ=              0.5279   YZ=             -0.2418

 Normal termination of Gaussian 16 at Fri Sep 22 11:09:19 2023.
