 Gaussian 16, Revision A.03,
 Gaussian 16:  ES64L-G16RevA.03 25-Dec-2016

 ----------------
 # 6-31g(d) wb97x
 ----------------

 --------------------
 tmpdir/M3_ref_50.gjf
 --------------------
 Symbolic Z-matrix:
 Charge =  0 Multiplicity = 1

                         Standard orientation:
 ---------------------------------------------------------------------
 Center     Atomic      Atomic             Coordinates (Angstroms)
 Number     Number       Type             X           Y           Z
 ---------------------------------------------------------------------
      1          1           0        1.013984   -0.016268    1.075072
      2          6           0        0.707910   -0.000096    0.011090
      3          7           0       -0.744632    0.001849   -0.113067
      4          1           0        1.134526    0.892221   -0.472947
      5          1           0        1.103882   -0.902643   -0.467088
      6          1           0       -1.127648    0.849925    0.303900
      7          1           0       -1.159783   -0.835603    0.285990
 ---------------------------------------------------------------------

 SCF Done:  E(RwB97X) =  -95.8213087554     A.U. after   13 cycles

 The electronic state is 1-A.
 Alpha  occ. eigenvalues --  -14.37966 -10.28053  -0.99299  -0.77374  -0.60116
 Alpha  occ. eigenvalues --   -0.53453  -0.50539  -0.47090  -0.32099
 Alpha virt. eigenvalues --    0.18422   0.24215   0.25497   0.27585   0.29066
 Alpha virt. eigenvalues --    0.34062   0.66036   0.67693   0.69706   0.84783
 Alpha virt. eigenvalues --    0.87541   0.89445   0.97777   1.02490   1.04679

 Mulliken charges:
               1
     1  H    0.128402
     2  C   -0.327541
     3  N   -0.743900
     4  H    0.162851
     5  H    0.162754
     6  H    0.307498
     7  H    0.309936
 Sum of Mulliken charges =  -0.00000

 Dipole moment (field-independent basis, Debye):
    X=              0.1667    Y=             -0.0155    Z=              1.3505  Tot=              1.3608
 Quadrupole moment (field-independent basis, Debye-Ang):
   XX=            -13.6030   YY=            -12.1127   ZZ=            -15.2757
   XY=              0.0771   XZ=             -2.0495   YZ=              0.0222

 Normal termination of Gaussian 16 at Fri Sep 22 11:09:01 2023.
