 Gaussian 16, Revision A.03,
 Gaussian 16:  ES64L-G16RevA.03 25-Dec-2016

 ----------------
 # 6-31g(d) wb97x
 ----------------

 --------------------
 tmpdir/M3_ref_28.gjf
 --------------------
 Symbolic Z-matrix:
 Charge =  0 Multiplicity = 1

                         Standard orientation:
 ---------------------------------------------------------------------
 Center     Atomic      Atomic             Coordinates (Angstroms)
 Number     Number       Type             X           Y           Z
 ---------------------------------------------------------------------
      1          7           0       -0.740381   -0.000021   -0.113954
      2          6           0        0.701854    0.000026    0.013708
      3          1           0        1.116894    0.886977   -0.477069
      4          1           0       -1.150634   -0.834077    0.300732
      5          1           0       -1.151234    0.833820    0.300845
      6          1           0        1.039273   -0.000163    1.068369
      7          1           0        1.117244   -0.886562   -0.477448
 ---------------------------------------------------------------------

 SCF Done:  E(RwB97X) =  -95.8222571178     A.U. after   14 cycles

 The electronic state is 1-A.
 Alpha  occ. eigenvalues --  -14.38036 -10.27917  -0.99573  -0.77519  -0.59982
 Alpha  occ. eigenvalues --   -0.53874  -0.50689  -0.46807  -0.32266
 Alpha virt. eigenvalues --    0.18548   0.24222   0.25430   0.27734   0.29077
 Alpha virt. eigenvalues --    0.34570   0.66190   0.67352   0.69887   0.85055
 Alpha virt. eigenvalues --    0.87161   0.90131   0.97777   1.03208   1.04436

 Mulliken charges:
               1
     1  N   -0.740866
     2  C   -0.327602
     3  H    0.162631
     4  H    0.308093
     5  H    0.308097
     6  H    0.127008
     7  H    0.162639
 Sum of Mulliken charges =  -0.00000

 Dipole moment (field-independent basis, Debye):
    X=              0.1334    Y=             -0.0001    Z=              1.3537  Tot=              1.3603
 Quadrupole moment (field-independent basis, Debye-Ang):
   XX=            -13.4959   YY=            -12.2152   ZZ=            -15.2464
   XY=             -0.0008   XZ=             -2.0653   YZ=             -0.0000

 Normal termination of Gaussian 16 at Fri Sep 22 11:08:48 2023.
