 Gaussian 16, Revision A.03,
 Gaussian 16:  ES64L-G16RevA.03 25-Dec-2016

 ----------------
 # 6-31g(d) wb97x
 ----------------

 --------------------
 tmpdir/M3_ref_73.gjf
 --------------------
 Symbolic Z-matrix:
 Charge =  0 Multiplicity = 1

                         Standard orientation:
 ---------------------------------------------------------------------
 Center     Atomic      Atomic             Coordinates (Angstroms)
 Number     Number       Type             X           Y           Z
 ---------------------------------------------------------------------
      1          6           0        2.607334   -0.219813   -0.003392
      2          7           0        1.430264   -0.876470   -0.247247
      3          6           0        0.111535   -0.381827   -0.118111
      4          6           0       -0.186065    0.976806   -0.220354
      5          6           0       -0.904716   -1.314837    0.073985
      6          1           0        0.597305    1.699440   -0.379203
      7          6           0       -1.512900    1.401589   -0.115852
      8          1           0       -0.672874   -2.374695    0.156204
      9          6           0       -2.218102   -0.876378    0.169901
     10          6           0       -2.553556    0.468942    0.083128
     11          1           0       -3.011652   -1.605100    0.321210
     12          1           0        3.504230   -0.817357   -0.150738
     13          8           0        2.677202    0.942091    0.367740
     14          1           0        1.498108   -1.877105   -0.357954
     15          1           0       -1.810916    2.460509   -0.182650
     16          1           0       -3.594838    0.785971    0.166115
 ---------------------------------------------------------------------

 SCF Done:  E(RwB97X) =  -400.831214296     A.U. after   16 cycles

 The electronic state is 1-A.
 Alpha  occ. eigenvalues --  -19.19264 -14.45862 -10.38123 -10.32472 -10.28035
 Alpha  occ. eigenvalues --  -10.27999 -10.27817 -10.27350 -10.27137  -1.16817
 Alpha  occ. eigenvalues --   -1.07436  -0.98132  -0.87863  -0.87707  -0.76975
 Alpha  occ. eigenvalues --   -0.74173  -0.69581  -0.66528  -0.62940  -0.59656
 Alpha  occ. eigenvalues --   -0.55884  -0.54546  -0.53623  -0.52821  -0.51997
 Alpha  occ. eigenvalues --   -0.48124  -0.46722  -0.44523  -0.40676  -0.36342
 Alpha  occ. eigenvalues --   -0.34380  -0.31224
 Alpha virt. eigenvalues --    0.06873   0.08176   0.13527   0.16617   0.18952
 Alpha virt. eigenvalues --    0.23585   0.24549   0.25539   0.27313   0.28899
 Alpha virt. eigenvalues --    0.29621   0.32962   0.38022   0.39452   0.40098

 Mulliken charges:
               1
     1  C    0.339140
     2  N   -0.667552
     3  C    0.320330
     4  C   -0.174060
     5  C   -0.213943
     6  H    0.202318
     7  C   -0.175085
     8  H    0.154478
     9  C   -0.163012
    10  C   -0.159687
    11  H    0.159364
    12  H    0.144948
    13  O   -0.443436
    14  H    0.345304
    15  H    0.167238
    16  H    0.163655
 Sum of Mulliken charges =  -0.00000

 Dipole moment (field-independent basis, Debye):
    X=             -0.9259    Y=             -3.1774    Z=             -0.8335  Tot=              3.4129
 Quadrupole moment (field-independent basis, Debye-Ang):
   XX=            -49.1052   YY=            -45.4704   ZZ=            -55.2339
   XY=             -8.6704   XZ=             -3.0571   YZ=             -1.1035

 Normal termination of Gaussian 16 at Fri Sep 22 11:09:37 2023.
