 Gaussian 16, Revision A.03,
 Gaussian 16:  ES64L-G16RevA.03 25-Dec-2016

 ----------------
 # 6-31g(d) wb97x
 ----------------

 --------------------
 tmpdir/M3_ref_85.gjf
 --------------------
 Symbolic Z-matrix:
 Charge =  0 Multiplicity = 1

                         Standard orientation:
 ---------------------------------------------------------------------
 Center     Atomic      Atomic             Coordinates (Angstroms)
 Number     Number       Type             X           Y           Z
 ---------------------------------------------------------------------
      1          6           0        0.917298   -0.059302    0.000339
      2          7           0        2.319311   -0.041919    0.000748
      3          6           0        0.171281   -1.240535   -0.000183
      4          6           0        0.274893    1.197560   -0.001079
      5          6           0       -1.221739   -1.174581    0.006678
      6          1           0        0.675256   -2.192939   -0.006176
      7          6           0       -1.114115    1.221883   -0.004231
      8          6           0       -1.870374    0.058065    0.001032
      9          1           0       -1.620856    2.184617   -0.007361
     10          1           0       -2.957131    0.110131    0.008785
     11          1           0        2.754776    0.867461    0.032824
     12          1           0        2.982958   -0.737444   -0.028725
     13          1           0        0.844549    2.128770   -0.001223
     14          1           0       -1.858192   -2.085709   -0.018686
 ---------------------------------------------------------------------

 SCF Done:  E(RwB97X) =  -287.510603432     A.U. after   14 cycles

 The electronic state is 1-A.
 Alpha  occ. eigenvalues --  -14.40531 -10.31438 -10.26853 -10.26400 -10.26013
 Alpha  occ. eigenvalues --  -10.25791 -10.25115  -1.03799  -0.95878  -0.86369
 Alpha  occ. eigenvalues --   -0.84658  -0.72368  -0.71338  -0.63747  -0.61166
 Alpha  occ. eigenvalues --   -0.58225  -0.52932  -0.52533  -0.51638  -0.48785
 Alpha  occ. eigenvalues --   -0.44856  -0.43081  -0.40401  -0.33293  -0.27826
 Alpha virt. eigenvalues --    0.09386   0.11408   0.18717   0.19816   0.22871
 Alpha virt. eigenvalues --    0.26211   0.27297   0.28629   0.29246   0.30285
 Alpha virt. eigenvalues --    0.36505   0.40977   0.42432   0.45448   0.46439

 Mulliken charges:
               1
     1  C    0.349622
     2  N   -0.856539
     3  C   -0.205729
     4  C   -0.221083
     5  C   -0.163563
     6  H    0.148612
     7  C   -0.157692
     8  C   -0.173476
     9  H    0.151501
    10  H    0.149278
    11  H    0.335093
    12  H    0.341139
    13  H    0.147654
    14  H    0.155182
 Sum of Mulliken charges =  -0.00000

 Dipole moment (field-independent basis, Debye):
    X=              1.6976    Y=              0.1105    Z=             -0.0183  Tot=              1.7013
 Quadrupole moment (field-independent basis, Debye-Ang):
   XX=            -31.6825   YY=            -35.9787   ZZ=            -45.9215
   XY=              0.2205   XZ=             -0.0087   YZ=              0.1528

 Normal termination of Gaussian 16 at Fri Sep 22 11:09:52 2023.
