 Gaussian 16, Revision A.03,
 Gaussian 16:  ES64L-G16RevA.03 25-Dec-2016

 ----------------
 # 6-31g(d) wb97x
 ----------------

 --------------------
 tmpdir/M3_ref_54.gjf
 --------------------
 Symbolic Z-matrix:
 Charge =  0 Multiplicity = 1

                         Standard orientation:
 ---------------------------------------------------------------------
 Center     Atomic      Atomic             Coordinates (Angstroms)
 Number     Number       Type             X           Y           Z
 ---------------------------------------------------------------------
      1          6           0        1.208921   -0.229811    0.018385
      2          7           0        0.000540    0.566895   -0.155896
      3          6           0       -1.201150   -0.229082    0.015065
      4          1           0        2.103070    0.385843   -0.165979
      5          1           0        1.186975   -1.067148   -0.687607
      6          1           0        1.262344   -0.648759    1.041922
      7          1           0        0.017906    1.366897    0.476157
      8          1           0       -1.201397   -0.773866    0.979850
      9          1           0       -2.054364    0.461920    0.049899
     10          1           0       -1.364941   -0.939793   -0.803664
 ---------------------------------------------------------------------

 SCF Done:  E(RwB97X) =  -135.120091680     A.U. after   13 cycles

 The electronic state is 1-A.
 Alpha  occ. eigenvalues --  -14.38765 -10.28019 -10.27979  -1.02059  -0.82038
 Alpha  occ. eigenvalues --   -0.74359  -0.59487  -0.54931  -0.53454  -0.48885
 Alpha  occ. eigenvalues --   -0.46906  -0.45574  -0.31032
 Alpha virt. eigenvalues --    0.18044   0.22893   0.25163   0.25576   0.26599
 Alpha virt. eigenvalues --    0.28876   0.29423   0.31619   0.36643   0.63441
 Alpha virt. eigenvalues --    0.64385   0.68973   0.69614   0.70199   0.84404

 Mulliken charges:
               1
     1  C   -0.323621
     2  N   -0.552615
     3  C   -0.323507
     4  H    0.161923
     5  H    0.160935
     6  H    0.124594
     7  H    0.306606
     8  H    0.122829
     9  H    0.158577
    10  H    0.164279
 Sum of Mulliken charges =  -0.00000

 Dipole moment (field-independent basis, Debye):
    X=             -0.0089    Y=             -0.1332    Z=              1.0387  Tot=              1.0472
 Quadrupole moment (field-independent basis, Debye-Ang):
   XX=            -19.5264   YY=            -19.9684   ZZ=            -21.6181
   XY=              0.0886   XZ=             -0.0133   YZ=              2.1558

 Normal termination of Gaussian 16 at Fri Sep 22 11:09:11 2023.
