 Gaussian 16, Revision A.03,
 Gaussian 16:  ES64L-G16RevA.03 25-Dec-2016

 ----------------
 # b3lyp/6-31g(d)
 ----------------

 -----------------------
 tmpdir/M3_conf_0_33.gjf
 -----------------------
 Symbolic Z-matrix:
 Charge =  0 Multiplicity = 1

                         Standard orientation:
 ---------------------------------------------------------------------
 Center     Atomic      Atomic             Coordinates (Angstroms)
 Number     Number       Type             X           Y           Z
 ---------------------------------------------------------------------
      1          6           0        0.763417   -0.010200   -0.006658
      2          6           0       -0.764313    0.001349    0.002311
      3          1           0       -1.155169    0.256502   -0.988447
      4          1           0        1.186597    1.016282   -0.316456
      5          1           0        1.148917   -0.201533    1.004789
      6          1           0        1.132119   -0.815448   -0.663774
      7          1           0       -1.189856   -0.985442    0.304805
      8          1           0       -1.117233    0.782748    0.685168
 ---------------------------------------------------------------------

 SCF Done:  E(RB3LYP) =  -79.8275020100     A.U. after   11 cycles

 The electronic state is 1-A.
 Alpha  occ. eigenvalues --  -10.17883 -10.17430  -0.74653  -0.60594  -0.43317
 Alpha  occ. eigenvalues --   -0.42648  -0.36018  -0.34106  -0.33479
 Alpha virt. eigenvalues --    0.10008   0.14724   0.16007   0.16367   0.18486
 Alpha virt. eigenvalues --    0.18780   0.24056   0.51129   0.54541   0.55733
 Alpha virt. eigenvalues --    0.62525   0.64822   0.66794   0.85952   0.87870

 Mulliken charges:
               1
     1  C   -0.424605
     2  C   -0.427464
     3  H    0.145595
     4  H    0.131261
     5  H    0.145238
     6  H    0.144944
     7  H    0.140397
     8  H    0.144634
 Sum of Mulliken charges =  -0.00000

 Dipole moment (field-independent basis, Debye):
    X=             -0.0237    Y=             -0.0094    Z=              0.0240  Tot=              0.0350
 Quadrupole moment (field-independent basis, Debye-Ang):
   XX=            -15.4726   YY=            -14.5905   ZZ=            -14.8639
   XY=              0.0133   XZ=              0.0801   YZ=              0.0442

 Normal termination of Gaussian 16 at Thu Dec 26 10:46:27 2024.
