 Gaussian 16, Revision A.03,
 Gaussian 16:  ES64L-G16RevA.03 25-Dec-2016

 ----------------
 # b3lyp/6-31g(d)
 ----------------

 ----------------------
 tmpdir/M3_conf_0_9.gjf
 ----------------------
 Symbolic Z-matrix:
 Charge =  0 Multiplicity = 1

                         Standard orientation:
 ---------------------------------------------------------------------
 Center     Atomic      Atomic             Coordinates (Angstroms)
 Number     Number       Type             X           Y           Z
 ---------------------------------------------------------------------
      1          1           0       -1.151255    0.480802   -0.907106
      2          6           0       -0.771008   -0.010697    0.000065
      3          6           0        0.771132    0.002546   -0.001342
      4          1           0       -1.173325   -0.988761    0.062148
      5          1           0       -1.138790    0.587695    0.845713
      6          1           0        1.178210    1.029355   -0.057895
      7          1           0        1.146520   -0.583784   -0.847945
      8          1           0        1.137893   -0.476398    0.912746
 ---------------------------------------------------------------------

 SCF Done:  E(RB3LYP) =  -79.8288282532     A.U. after   10 cycles

 The electronic state is 1-A.
 Alpha  occ. eigenvalues --  -10.17338 -10.16940  -0.74665  -0.61197  -0.43498
 Alpha  occ. eigenvalues --   -0.42789  -0.35906  -0.34507  -0.33721
 Alpha virt. eigenvalues --    0.10402   0.15783   0.16614   0.16644   0.18472
 Alpha virt. eigenvalues --    0.19480   0.23705   0.51480   0.54194   0.54652
 Alpha virt. eigenvalues --    0.62347   0.64253   0.66364   0.88258   0.88553

 Mulliken charges:
               1
     1  H    0.141738
     2  C   -0.435342
     3  C   -0.433249
     4  H    0.153853
     5  H    0.141722
     6  H    0.143277
     7  H    0.143926
     8  H    0.144076
 Sum of Mulliken charges =   0.00000

 Dipole moment (field-independent basis, Debye):
    X=             -0.0178    Y=             -0.0261    Z=              0.0068  Tot=              0.0324
 Quadrupole moment (field-independent basis, Debye-Ang):
   XX=            -15.3379   YY=            -14.5515   ZZ=            -14.7715
   XY=              0.0851   XZ=             -0.0000   YZ=             -0.0071

 Normal termination of Gaussian 16 at Thu Dec 26 10:46:17 2024.
