 Gaussian 16, Revision A.03,
 Gaussian 16:  ES64L-G16RevA.03 25-Dec-2016

 ----------------
 # b3lyp/6-31g(d)
 ----------------

 ----------------------
 tmpdir/M3_conf_0_7.gjf
 ----------------------
 Symbolic Z-matrix:
 Charge =  0 Multiplicity = 1

                         Standard orientation:
 ---------------------------------------------------------------------
 Center     Atomic      Atomic             Coordinates (Angstroms)
 Number     Number       Type             X           Y           Z
 ---------------------------------------------------------------------
      1          1           0       -0.349106   -0.689467   -0.771916
      2          6           0        0.002962    0.012080   -0.002279
      3          1           0       -0.366656   -0.375348    0.958140
      4          1           0       -0.421262    0.966697   -0.178507
      5          1           0        1.119249    0.025640    0.005960
 ---------------------------------------------------------------------

 SCF Done:  E(RB3LYP) =  -40.5168407598     A.U. after    9 cycles

 The electronic state is 1-A.
 Alpha  occ. eigenvalues --  -10.16712  -0.69060  -0.39770  -0.38687  -0.38239
 Alpha virt. eigenvalues --    0.11724   0.17143   0.17293   0.18470   0.52614
 Alpha virt. eigenvalues --    0.53275   0.54158   0.88415   0.88838   0.91262
 Alpha virt. eigenvalues --    0.95642   1.10111   1.65619   1.65699   2.21307

 Mulliken charges:
               1
     1  H    0.154445
     2  C   -0.628047
     3  H    0.154324
     4  H    0.166567
     5  H    0.152711
 Sum of Mulliken charges =   0.00000

 Dipole moment (field-independent basis, Debye):
    X=             -0.0420    Y=             -0.0071    Z=              0.0010  Tot=              0.0426
 Quadrupole moment (field-independent basis, Debye-Ang):
   XX=             -8.1551   YY=             -8.2462   ZZ=             -8.3584
   XY=             -0.0447   XZ=              0.0084   YZ=             -0.0191

 Normal termination of Gaussian 16 at Thu Dec 26 10:46:19 2024.
