 Gaussian 16, Revision A.03,
 Gaussian 16:  ES64L-G16RevA.03 25-Dec-2016

 ----------------
 # b3lyp/6-31g(d)
 ----------------

 ----------------------
 tmpdir/M3_conf_0_0.gjf
 ----------------------
 Symbolic Z-matrix:
 Charge =  0 Multiplicity = 1

                         Standard orientation:
 ---------------------------------------------------------------------
 Center     Atomic      Atomic             Coordinates (Angstroms)
 Number     Number       Type             X           Y           Z
 ---------------------------------------------------------------------
      1          6           0        0.228942   -0.003487   -0.000125
      2          6           0       -1.259219    0.007264   -0.000193
      3          6           0        1.436522    0.003178   -0.000093
      4          1           0        2.502617    0.006958    0.000719
      5          1           0       -1.626291   -0.528597    0.886693
      6          1           0       -1.625803   -0.558018   -0.869215
      7          1           0       -1.687993    1.037927   -0.015734
 ---------------------------------------------------------------------

 SCF Done:  E(RB3LYP) =  -116.652087780     A.U. after   12 cycles

 The electronic state is 1-A.
 Alpha  occ. eigenvalues --  -10.21203 -10.18580 -10.17248  -0.76866  -0.69364
 Alpha  occ. eigenvalues --   -0.52358  -0.44394  -0.42914  -0.42502  -0.26076
 Alpha  occ. eigenvalues --   -0.25958
 Alpha virt. eigenvalues --    0.06075   0.06362   0.10677   0.13180   0.17770
 Alpha virt. eigenvalues --    0.17966   0.22576   0.40326   0.46438   0.52730
 Alpha virt. eigenvalues --    0.53081   0.62072   0.63523   0.72002   0.72960

 Mulliken charges:
               1
     1  C    0.283988
     2  C   -0.561855
     3  C   -0.451279
     4  H    0.183308
     5  H    0.182807
     6  H    0.182753
     7  H    0.180278
 Sum of Mulliken charges =  -0.00000

 Dipole moment (field-independent basis, Debye):
    X=             -0.6916    Y=             -0.0308    Z=              0.0022  Tot=              0.6923
 Quadrupole moment (field-independent basis, Debye-Ang):
   XX=            -13.6989   YY=            -18.9891   ZZ=            -19.1619
   XY=              0.0189   XZ=             -0.0000   YZ=              0.0001

 Normal termination of Gaussian 16 at Thu Dec 26 10:46:15 2024.
