 Gaussian 16, Revision A.03,
 Gaussian 16:  ES64L-G16RevA.03 25-Dec-2016

 ----------------
 # b3lyp/6-31g(d)
 ----------------

 -----------------------
 tmpdir/M3_conf_0_19.gjf
 -----------------------
 Symbolic Z-matrix:
 Charge =  0 Multiplicity = 1

                         Standard orientation:
 ---------------------------------------------------------------------
 Center     Atomic      Atomic             Coordinates (Angstroms)
 Number     Number       Type             X           Y           Z
 ---------------------------------------------------------------------
      1          6           0       -0.007747    0.003566   -0.004783
      2          1           0       -0.515201   -0.731362   -0.642481
      3          1           0        1.055144    0.233531   -0.386997
      4          1           0        0.121181   -0.448758    0.988702
      5          1           0       -0.614640    0.925193    0.069477
 ---------------------------------------------------------------------

 SCF Done:  E(RB3LYP) =  -40.5157623515     A.U. after    9 cycles

 The electronic state is 1-A.
 Alpha  occ. eigenvalues --  -10.17544  -0.68461  -0.39103  -0.38912  -0.37676
 Alpha virt. eigenvalues --    0.11169   0.16197   0.17385   0.17468   0.53169
 Alpha virt. eigenvalues --    0.53692   0.55042   0.85976   0.89050   0.89151
 Alpha virt. eigenvalues --    0.92680   1.09334   1.65914   1.66291   2.17922

 Mulliken charges:
               1
     1  C   -0.618760
     2  H    0.159255
     3  H    0.144399
     4  H    0.157256
     5  H    0.157850
 Sum of Mulliken charges =   0.00000

 Dipole moment (field-independent basis, Debye):
    X=             -0.0244    Y=             -0.0320    Z=              0.0379  Tot=              0.0553
 Quadrupole moment (field-independent basis, Debye-Ang):
   XX=             -8.2061   YY=             -8.2717   ZZ=             -8.4404
   XY=             -0.0223   XZ=              0.0478   YZ=              0.0194

 Normal termination of Gaussian 16 at Thu Dec 26 10:46:20 2024.
