 Gaussian 16, Revision A.03,
 Gaussian 16:  ES64L-G16RevA.03 25-Dec-2016

 ----------------
 # b3lyp/6-31g(d)
 ----------------

 -----------------------
 tmpdir/M3_conf_0_26.gjf
 -----------------------
 Symbolic Z-matrix:
 Charge =  0 Multiplicity = 1

                         Standard orientation:
 ---------------------------------------------------------------------
 Center     Atomic      Atomic             Coordinates (Angstroms)
 Number     Number       Type             X           Y           Z
 ---------------------------------------------------------------------
      1          1           0        1.176207   -0.792743   -0.665809
      2          6           0        0.761921   -0.011833   -0.006480
      3          6           0       -0.765831   -0.001458   -0.000398
      4          1           0        1.159238    1.033348   -0.286559
      5          1           0        1.124295   -0.208245    1.012515
      6          1           0       -1.191283   -0.993590    0.284222
      7          1           0       -1.120663    0.767853    0.695072
      8          1           0       -1.124334    0.273126   -0.998170
 ---------------------------------------------------------------------

 SCF Done:  E(RB3LYP) =  -79.8272458312     A.U. after   11 cycles

 The electronic state is 1-A.
 Alpha  occ. eigenvalues --  -10.17848 -10.17437  -0.74685  -0.60517  -0.43310
 Alpha  occ. eigenvalues --   -0.42807  -0.35866  -0.34152  -0.33468
 Alpha virt. eigenvalues --    0.09948   0.14859   0.15982   0.16402   0.18282
 Alpha virt. eigenvalues --    0.18893   0.23982   0.51081   0.54741   0.55749
 Alpha virt. eigenvalues --    0.62262   0.64784   0.66816   0.85815   0.87879

 Mulliken charges:
               1
     1  H    0.145598
     2  C   -0.425336
     3  C   -0.426171
     4  H    0.130495
     5  H    0.144324
     6  H    0.140387
     7  H    0.145323
     8  H    0.145380
 Sum of Mulliken charges =  -0.00000

 Dipole moment (field-independent basis, Debye):
    X=             -0.0210    Y=             -0.0039    Z=              0.0287  Tot=              0.0357
 Quadrupole moment (field-independent basis, Debye-Ang):
   XX=            -15.5326   YY=            -14.5866   ZZ=            -14.8347
   XY=             -0.0390   XZ=             -0.0059   YZ=              0.0510

 Normal termination of Gaussian 16 at Thu Dec 26 10:46:22 2024.
