 Gaussian 16, Revision A.03,
 Gaussian 16:  ES64L-G16RevA.03 25-Dec-2016

 ----------------
 # b3lyp/6-31g(d)
 ----------------

 -----------------------
 tmpdir/M3_conf_0_27.gjf
 -----------------------
 Symbolic Z-matrix:
 Charge =  0 Multiplicity = 1

                         Standard orientation:
 ---------------------------------------------------------------------
 Center     Atomic      Atomic             Coordinates (Angstroms)
 Number     Number       Type             X           Y           Z
 ---------------------------------------------------------------------
      1          6           0       -0.001040    0.005669   -0.001565
      2          1           0        0.141928   -0.738423   -0.794570
      3          1           0       -1.026091    0.442139   -0.073135
      4          1           0        0.786387    0.778513   -0.078426
      5          1           0        0.104018   -0.516244    0.955524
 ---------------------------------------------------------------------

 SCF Done:  E(RB3LYP) =  -40.5176686698     A.U. after    9 cycles

 The electronic state is 1-A.
 Alpha  occ. eigenvalues --  -10.17124  -0.68734  -0.38991  -0.38683  -0.38515
 Alpha virt. eigenvalues --    0.11503   0.17164   0.17366   0.17458   0.53160
 Alpha virt. eigenvalues --    0.53543   0.54237   0.88411   0.89042   0.89193
 Alpha virt. eigenvalues --    0.93674   1.09723   1.65836   1.65868   2.20936

 Mulliken charges:
               1
     1  C   -0.623800
     2  H    0.157008
     3  H    0.153623
     4  H    0.156002
     5  H    0.157168
 Sum of Mulliken charges =   0.00000

 Dipole moment (field-independent basis, Debye):
    X=              0.0155    Y=             -0.0356    Z=              0.0093  Tot=              0.0399
 Quadrupole moment (field-independent basis, Debye-Ang):
   XX=             -8.1845   YY=             -8.2888   ZZ=             -8.3640
   XY=              0.0075   XZ=             -0.0014   YZ=              0.0007

 Normal termination of Gaussian 16 at Thu Dec 26 10:46:24 2024.
