 Gaussian 16, Revision A.03,
 Gaussian 16:  ES64L-G16RevA.03 25-Dec-2016

 ----------------
 # b3lyp/6-31g(d)
 ----------------

 -----------------------
 tmpdir/M3_conf_0_20.gjf
 -----------------------
 Symbolic Z-matrix:
 Charge =  0 Multiplicity = 1

                         Standard orientation:
 ---------------------------------------------------------------------
 Center     Atomic      Atomic             Coordinates (Angstroms)
 Number     Number       Type             X           Y           Z
 ---------------------------------------------------------------------
      1          6           0        0.767626   -0.010520   -0.005099
      2          6           0       -0.771912    0.001458    0.001782
      3          1           0        1.191597    1.021477   -0.294823
      4          1           0        1.151500   -0.221037    1.003148
      5          1           0        1.137101   -0.803354   -0.676723
      6          1           0       -1.198223   -0.990725    0.284947
      7          1           0       -1.125652    0.769952    0.698711
      8          1           0       -1.130611    0.278058   -0.995360
 ---------------------------------------------------------------------

 SCF Done:  E(RB3LYP) =  -79.8273543816     A.U. after   11 cycles

 The electronic state is 1-A.
 Alpha  occ. eigenvalues --  -10.17924 -10.17515  -0.74447  -0.60606  -0.43215
 Alpha  occ. eigenvalues --   -0.42659  -0.35686  -0.34208  -0.33618
 Alpha virt. eigenvalues --    0.09981   0.14711   0.16096   0.16466   0.18373
 Alpha virt. eigenvalues --    0.18744   0.23585   0.51429   0.54599   0.55527
 Alpha virt. eigenvalues --    0.62354   0.64895   0.66204   0.85983   0.87876

 Mulliken charges:
               1
     1  C   -0.426170
     2  C   -0.427483
     3  H    0.131371
     4  H    0.144913
     5  H    0.145118
     6  H    0.141037
     7  H    0.145224
     8  H    0.145988
 Sum of Mulliken charges =  -0.00000

 Dipole moment (field-independent basis, Debye):
    X=             -0.0218    Y=             -0.0099    Z=              0.0218  Tot=              0.0324
 Quadrupole moment (field-independent basis, Debye-Ang):
   XX=            -15.4968   YY=            -14.5935   ZZ=            -14.8416
   XY=              0.0225   XZ=              0.0415   YZ=              0.0428

 Normal termination of Gaussian 16 at Thu Dec 26 10:46:20 2024.
