 Gaussian 16, Revision A.03,
 Gaussian 16:  ES64L-G16RevA.03 25-Dec-2016

 ----------------
 # b3lyp/6-31g(d)
 ----------------

 -----------------------
 tmpdir/M3_conf_0_35.gjf
 -----------------------
 Symbolic Z-matrix:
 Charge =  0 Multiplicity = 1

                         Standard orientation:
 ---------------------------------------------------------------------
 Center     Atomic      Atomic             Coordinates (Angstroms)
 Number     Number       Type             X           Y           Z
 ---------------------------------------------------------------------
      1          6           0       -1.146843   -0.254102    0.005332
      2          6           0        0.020544   -1.135861    0.042670
      3          6           0        1.356005   -0.372401   -0.067025
      4          6           0        1.164411    1.139237    0.044602
      5          6           0       -2.100798    0.485625   -0.027039
      6          1           0       -2.944274    1.137030   -0.056170
      7          1           0       -0.050965   -1.867868   -0.774401
      8          1           0        0.004524   -1.719412    0.974573
      9          1           0        1.840339   -0.607280   -1.021845
     10          1           0        2.029978   -0.705972    0.729160
     11          1           0        2.170411    1.694955   -0.043739
     12          1           0        0.543846    1.506944   -0.784882
     13          1           0        0.646223    1.386623    0.986060
 ---------------------------------------------------------------------

 SCF Done:  E(RB3LYP) =  -195.269497285     A.U. after   13 cycles

 The electronic state is 1-A.
 Alpha  occ. eigenvalues --  -10.20636 -10.18730 -10.18057 -10.17406 -10.17078
 Alpha  occ. eigenvalues --   -0.80697  -0.73056  -0.68492  -0.59576  -0.51784
 Alpha  occ. eigenvalues --   -0.47040  -0.45786  -0.42482  -0.39733  -0.34926
 Alpha  occ. eigenvalues --   -0.34281  -0.33398  -0.25818  -0.25569
 Alpha virt. eigenvalues --    0.05534   0.06034   0.10271   0.12686   0.13763
 Alpha virt. eigenvalues --    0.14549   0.16349   0.17289   0.18255   0.19865
 Alpha virt. eigenvalues --    0.23039   0.27189   0.31718   0.42010   0.46639

 Mulliken charges:
               1
     1  C    0.327627
     2  C   -0.401924
     3  C   -0.253010
     4  C   -0.435295
     5  C   -0.487832
     6  H    0.183255
     7  H    0.172140
     8  H    0.171682
     9  H    0.144222
    10  H    0.143463
    11  H    0.121411
    12  H    0.159560
    13  H    0.154700
 Sum of Mulliken charges =   0.00000

 Dipole moment (field-independent basis, Debye):
    X=              0.4745    Y=             -0.3613    Z=             -0.0173  Tot=              0.5967
 Quadrupole moment (field-independent basis, Debye-Ang):
   XX=            -30.3606   YY=            -30.3937   ZZ=            -31.8369
   XY=             -2.6305   XZ=              0.0235   YZ=             -0.1878

 Normal termination of Gaussian 16 at Thu Dec 26 10:46:32 2024.
