 Gaussian 16, Revision A.03,
 Gaussian 16:  ES64L-G16RevA.03 25-Dec-2016

 ----------------
 # b3lyp/6-31g(d)
 ----------------

 -----------------------
 tmpdir/M3_conf_0_30.gjf
 -----------------------
 Symbolic Z-matrix:
 Charge =  0 Multiplicity = 1

                         Standard orientation:
 ---------------------------------------------------------------------
 Center     Atomic      Atomic             Coordinates (Angstroms)
 Number     Number       Type             X           Y           Z
 ---------------------------------------------------------------------
      1          6           0       -0.771114   -0.010918    0.000118
      2          6           0        0.771028    0.002351   -0.000877
      3          1           0        1.148375   -0.575430   -0.852466
      4          1           0       -1.176627   -0.988321    0.050774
      5          1           0       -1.141898    0.580452    0.849392
      6          1           0       -1.145065    0.490401   -0.904293
      7          1           0        1.178104    1.029650   -0.047487
      8          1           0        1.137625   -0.485349    0.908633
 ---------------------------------------------------------------------

 SCF Done:  E(RB3LYP) =  -79.8288101956     A.U. after   10 cycles

 The electronic state is 1-A.
 Alpha  occ. eigenvalues --  -10.17338 -10.16942  -0.74663  -0.61202  -0.43495
 Alpha  occ. eigenvalues --   -0.42785  -0.35927  -0.34498  -0.33713
 Alpha virt. eigenvalues --    0.10404   0.15778   0.16611   0.16646   0.18465
 Alpha virt. eigenvalues --    0.19489   0.23711   0.51487   0.54172   0.54653
 Alpha virt. eigenvalues --    0.62324   0.64303   0.66367   0.88258   0.88538

 Mulliken charges:
               1
     1  C   -0.435343
     2  C   -0.433309
     3  H    0.143960
     4  H    0.153923
     5  H    0.141802
     6  H    0.141667
     7  H    0.143296
     8  H    0.144004
 Sum of Mulliken charges =  -0.00000

 Dipole moment (field-independent basis, Debye):
    X=             -0.0178    Y=             -0.0253    Z=              0.0052  Tot=              0.0314
 Quadrupole moment (field-independent basis, Debye-Ang):
   XX=            -15.3341   YY=            -14.5516   ZZ=            -14.7737
   XY=              0.0885   XZ=             -0.0094   YZ=             -0.0050

 Normal termination of Gaussian 16 at Thu Dec 26 10:46:24 2024.
