 Gaussian 16, Revision A.03,
 Gaussian 16:  ES64L-G16RevA.03 25-Dec-2016

 ----------------
 # b3lyp/6-31g(d)
 ----------------

 -----------------------
 tmpdir/M3_conf_0_12.gjf
 -----------------------
 Symbolic Z-matrix:
 Charge =  0 Multiplicity = 1

                         Standard orientation:
 ---------------------------------------------------------------------
 Center     Atomic      Atomic             Coordinates (Angstroms)
 Number     Number       Type             X           Y           Z
 ---------------------------------------------------------------------
      1          7           0        0.740952    0.025417   -0.153443
      2          6           0       -0.707115   -0.010911    0.016860
      3          1           0        1.175480   -0.920055    0.369140
      4          1           0        1.102523    0.784350    0.426498
      5          1           0       -1.064613    0.998353   -0.231771
      6          1           0       -0.986841   -0.217243    1.063448
      7          1           0       -1.170523   -0.757863   -0.654374
 ---------------------------------------------------------------------

 SCF Done:  E(RB3LYP) =  -95.8395405985     A.U. after   11 cycles

 The electronic state is 1-A.
 Alpha  occ. eigenvalues --  -14.32201 -10.20090  -0.86323  -0.64562  -0.47060
 Alpha  occ. eigenvalues --   -0.43412  -0.39588  -0.35527  -0.23229
 Alpha virt. eigenvalues --    0.06196   0.12553   0.14206   0.17584   0.17974
 Alpha virt. eigenvalues --    0.23491   0.54676   0.56608   0.58983   0.72049
 Alpha virt. eigenvalues --    0.74598   0.79948   0.83321   0.87034   0.91580

 Mulliken charges:
               1
     1  N   -0.676643
     2  C   -0.297354
     3  H    0.247416
     4  H    0.297172
     5  H    0.150711
     6  H    0.123398
     7  H    0.155299
 Sum of Mulliken charges =   0.00000

 Dipole moment (field-independent basis, Debye):
    X=             -0.3424    Y=             -0.0307    Z=              1.5850  Tot=              1.6218
 Quadrupole moment (field-independent basis, Debye-Ang):
   XX=            -14.1519   YY=            -12.5858   ZZ=            -15.0717
   XY=             -0.1220   XZ=              2.2614   YZ=              0.2043

 Normal termination of Gaussian 16 at Thu Dec 26 10:46:18 2024.
