 Gaussian 16, Revision A.03,
 Gaussian 16:  ES64L-G16RevA.03 25-Dec-2016

 ----------------
 # b3lyp/6-31g(d)
 ----------------

 -----------------------
 tmpdir/M3_conf_0_34.gjf
 -----------------------
 Symbolic Z-matrix:
 Charge =  0 Multiplicity = 1

                         Standard orientation:
 ---------------------------------------------------------------------
 Center     Atomic      Atomic             Coordinates (Angstroms)
 Number     Number       Type             X           Y           Z
 ---------------------------------------------------------------------
      1          1           0        0.153405   -0.654095   -0.861028
      2          6           0       -0.001435    0.006727   -0.000345
      3          1           0        0.130428   -0.610423    0.894749
      4          1           0       -1.038802    0.418738   -0.021942
      5          1           0        0.763579    0.805419   -0.009706
 ---------------------------------------------------------------------

 SCF Done:  E(RB3LYP) =  -40.5176011957     A.U. after    9 cycles

 The electronic state is 1-A.
 Alpha  occ. eigenvalues --  -10.17116  -0.68743  -0.38993  -0.38782  -0.38419
 Alpha virt. eigenvalues --    0.11503   0.17175   0.17398   0.17427   0.53098
 Alpha virt. eigenvalues --    0.53596   0.54237   0.88448   0.89066   0.89114
 Alpha virt. eigenvalues --    0.93765   1.09741   1.65831   1.65872   2.20901

 Mulliken charges:
               1
     1  H    0.156962
     2  C   -0.623944
     3  H    0.157141
     4  H    0.153737
     5  H    0.156104
 Sum of Mulliken charges =  -0.00000

 Dipole moment (field-independent basis, Debye):
    X=              0.0174    Y=             -0.0397    Z=              0.0026  Tot=              0.0434
 Quadrupole moment (field-independent basis, Debye-Ang):
   XX=             -8.1818   YY=             -8.2706   ZZ=             -8.3838
   XY=              0.0070   XZ=             -0.0004   YZ=             -0.0006

 Normal termination of Gaussian 16 at Thu Dec 26 10:46:25 2024.
