 Gaussian 16, Revision A.03,
 Gaussian 16:  ES64L-G16RevA.03 25-Dec-2016

 ----------------
 # b3lyp/6-31g(d)
 ----------------

 ----------------------
 tmpdir/M3_conf_0_4.gjf
 ----------------------
 Symbolic Z-matrix:
 Charge =  0 Multiplicity = 1

                         Standard orientation:
 ---------------------------------------------------------------------
 Center     Atomic      Atomic             Coordinates (Angstroms)
 Number     Number       Type             X           Y           Z
 ---------------------------------------------------------------------
      1          6           0       -0.214381   -0.006634   -0.004449
      2          6           0        1.248935    0.008127    0.001050
      3          1           0        1.602890   -0.575553   -0.860628
      4          6           0       -1.433181    0.004686    0.002265
      5          1           0       -2.499374    0.009561    0.002901
      6          1           0        1.613341   -0.510518    0.899564
      7          1           0        1.674902    1.039436   -0.035031
 ---------------------------------------------------------------------

 SCF Done:  E(RB3LYP) =  -116.652087410     A.U. after   12 cycles

 The electronic state is 1-A.
 Alpha  occ. eigenvalues --  -10.21030 -10.18656 -10.17417  -0.77241  -0.69192
 Alpha  occ. eigenvalues --   -0.52373  -0.44625  -0.43119  -0.42768  -0.25799
 Alpha  occ. eigenvalues --   -0.25669
 Alpha virt. eigenvalues --    0.05751   0.06093   0.10699   0.13152   0.17742
 Alpha virt. eigenvalues --    0.18000   0.23506   0.39977   0.46448   0.52971
 Alpha virt. eigenvalues --    0.53345   0.62052   0.63568   0.71749   0.72787

 Mulliken charges:
               1
     1  C    0.285055
     2  C   -0.569119
     3  H    0.183267
     4  C   -0.448130
     5  H    0.184414
     6  H    0.183501
     7  H    0.181011
 Sum of Mulliken charges =   0.00000

 Dipole moment (field-independent basis, Debye):
    X=              0.6959    Y=             -0.0290    Z=              0.0025  Tot=              0.6966
 Quadrupole moment (field-independent basis, Debye-Ang):
   XX=            -13.7996   YY=            -18.9896   ZZ=            -19.1549
   XY=             -0.0146   XZ=              0.0072   YZ=             -0.0002

 Normal termination of Gaussian 16 at Thu Dec 26 10:46:15 2024.
