 Gaussian 16, Revision A.03,
 Gaussian 16:  ES64L-G16RevA.03 25-Dec-2016

 ----------------
 # b3lyp/6-31g(d)
 ----------------

 -----------------------
 tmpdir/M3_conf_0_24.gjf
 -----------------------
 Symbolic Z-matrix:
 Charge =  0 Multiplicity = 1

                         Standard orientation:
 ---------------------------------------------------------------------
 Center     Atomic      Atomic             Coordinates (Angstroms)
 Number     Number       Type             X           Y           Z
 ---------------------------------------------------------------------
      1          1           0        0.181996   -0.334724    1.026142
      2          6           0       -0.007745    0.002155   -0.002815
      3          1           0       -0.534581   -0.799734   -0.546497
      4          1           0        1.028811    0.204867   -0.464531
      5          1           0       -0.629756    0.916662    0.001773
 ---------------------------------------------------------------------

 SCF Done:  E(RB3LYP) =  -40.5158202374     A.U. after    9 cycles

 The electronic state is 1-A.
 Alpha  occ. eigenvalues --  -10.17600  -0.68413  -0.39151  -0.38785  -0.37694
 Alpha virt. eigenvalues --    0.11147   0.16182   0.17249   0.17493   0.53335
 Alpha virt. eigenvalues --    0.53634   0.55049   0.85975   0.88829   0.89201
 Alpha virt. eigenvalues --    0.92339   1.09255   1.66005   1.66263   2.17949

 Mulliken charges:
               1
     1  H    0.157813
     2  C   -0.618018
     3  H    0.158057
     4  H    0.144321
     5  H    0.157828
 Sum of Mulliken charges =  -0.00000

 Dipole moment (field-independent basis, Debye):
    X=             -0.0205    Y=             -0.0216    Z=              0.0383  Tot=              0.0485
 Quadrupole moment (field-independent basis, Debye-Ang):
   XX=             -8.2062   YY=             -8.3007   ZZ=             -8.4216
   XY=             -0.0223   XZ=              0.0526   YZ=              0.0126

 Normal termination of Gaussian 16 at Thu Dec 26 10:46:21 2024.
