 Gaussian 16, Revision A.03,
 Gaussian 16:  ES64L-G16RevA.03 25-Dec-2016

 ----------------
 # b3lyp/6-31g(d)
 ----------------

 ----------------------
 tmpdir/M3_conf_0_6.gjf
 ----------------------
 Symbolic Z-matrix:
 Charge =  0 Multiplicity = 1

                         Standard orientation:
 ---------------------------------------------------------------------
 Center     Atomic      Atomic             Coordinates (Angstroms)
 Number     Number       Type             X           Y           Z
 ---------------------------------------------------------------------
      1          6           0       -0.814242    0.152296   -0.000294
      2          6           0        0.557796    0.661267   -0.000568
      3          6           0        1.580144   -0.493364   -0.000659
      4          6           0       -1.973871   -0.256613    0.000176
      5          1           0       -2.975552   -0.621318    0.001276
      6          1           0        0.706498    1.305014    0.878030
      7          1           0        0.704609    1.307379   -0.878120
      8          1           0        2.623127   -0.125412    0.005574
      9          1           0        1.424284   -1.126988   -0.881376
     10          1           0        1.418072   -1.120189    0.882685
 ---------------------------------------------------------------------

 SCF Done:  E(RB3LYP) =  -155.965538854     A.U. after   13 cycles

 The electronic state is 1-A.
 Alpha  occ. eigenvalues --  -10.21115 -10.18593 -10.18585 -10.17687  -0.79504
 Alpha  occ. eigenvalues --   -0.71345  -0.63829  -0.52397  -0.46482  -0.45695
 Alpha  occ. eigenvalues --   -0.39601  -0.37275  -0.36305  -0.25587  -0.25506
 Alpha virt. eigenvalues --    0.05173   0.05712   0.11042   0.13047   0.14928
 Alpha virt. eigenvalues --    0.15338   0.16990   0.20298   0.22826   0.25844
 Alpha virt. eigenvalues --    0.41773   0.46631   0.53036   0.53124   0.55045

 Mulliken charges:
               1
     1  C    0.291457
     2  C   -0.389189
     3  C   -0.438079
     4  C   -0.461592
     5  H    0.186115
     6  H    0.172063
     7  H    0.171964
     8  H    0.145913
     9  H    0.160667
    10  H    0.160681
 Sum of Mulliken charges =  -0.00000

 Dipole moment (field-independent basis, Debye):
    X=              0.6504    Y=              0.1530    Z=              0.0040  Tot=              0.6682
 Quadrupole moment (field-independent basis, Debye-Ang):
   XX=            -21.7697   YY=            -24.9706   ZZ=            -25.5431
   XY=              1.8222   XZ=              0.0034   YZ=              0.0058

 Normal termination of Gaussian 16 at Thu Dec 26 10:46:18 2024.
