 Gaussian 16, Revision A.03,
 Gaussian 16:  ES64L-G16RevA.03 25-Dec-2016

 ----------------
 # b3lyp/6-31g(d)
 ----------------

 ----------------------
 tmpdir/M3_conf_0_5.gjf
 ----------------------
 Symbolic Z-matrix:
 Charge =  0 Multiplicity = 1

                         Standard orientation:
 ---------------------------------------------------------------------
 Center     Atomic      Atomic             Coordinates (Angstroms)
 Number     Number       Type             X           Y           Z
 ---------------------------------------------------------------------
      1          6           0       -0.224377    0.000267   -0.006193
      2          6           0        1.238991    0.006245    0.001411
      3          1           0        1.622574   -0.500079    0.898975
      4          6           0       -1.417766    0.001388    0.003123
      5          1           0       -2.483905    0.003815    0.004315
      6          1           0        1.608980   -0.585631   -0.847852
      7          1           0        1.671254    1.034492   -0.045486
 ---------------------------------------------------------------------

 SCF Done:  E(RB3LYP) =  -116.652194676     A.U. after   12 cycles

 The electronic state is 1-A.
 Alpha  occ. eigenvalues --  -10.20883 -10.18107 -10.16887  -0.77312  -0.69522
 Alpha  occ. eigenvalues --   -0.52288  -0.44788  -0.42982  -0.42484  -0.26217
 Alpha  occ. eigenvalues --   -0.26093
 Alpha virt. eigenvalues --    0.06376   0.06620   0.10827   0.13363   0.18071
 Alpha virt. eigenvalues --    0.18261   0.23819   0.40564   0.46282   0.52569
 Alpha virt. eigenvalues --    0.52931   0.62378   0.63921   0.72360   0.73194

 Mulliken charges:
               1
     1  C    0.324494
     2  C   -0.574819
     3  H    0.182089
     4  C   -0.474239
     5  H    0.181727
     6  H    0.181683
     7  H    0.179064
 Sum of Mulliken charges =  -0.00000

 Dipole moment (field-independent basis, Debye):
    X=              0.6625    Y=             -0.0345    Z=              0.0040  Tot=              0.6634
 Quadrupole moment (field-independent basis, Debye-Ang):
   XX=            -13.8027   YY=            -18.9225   ZZ=            -19.1049
   XY=             -0.0236   XZ=              0.0098   YZ=              0.0001

 Normal termination of Gaussian 16 at Thu Dec 26 10:46:18 2024.
