 Gaussian 16, Revision A.03,
 Gaussian 16:  ES64L-G16RevA.03 25-Dec-2016

 ----------------
 # b3lyp/6-31g(d)
 ----------------

 ---------------------------
 tmpdir/M3_frag_conf_0_0.gjf
 ---------------------------
 Symbolic Z-matrix:
 Charge =  0 Multiplicity = 1

                         Standard orientation:
 ---------------------------------------------------------------------
 Center     Atomic      Atomic             Coordinates (Angstroms)
 Number     Number       Type             X           Y           Z
 ---------------------------------------------------------------------
      1          6           0       -0.616921   -0.045882   -0.018944
      2          6           0        0.639151   -0.109435    0.014501
      3          1           0        1.476800    0.567017   -0.026824
      4          1           0       -1.610177    0.364886    0.053485
 ---------------------------------------------------------------------

 SCF Done:  E(RB3LYP) =  -77.2975978990     A.U. after   13 cycles

 The electronic state is 1-A.
 Alpha  occ. eigenvalues --  -10.20881 -10.19862  -0.73978  -0.56162  -0.47540
 Alpha  occ. eigenvalues --   -0.27707  -0.27626
 Alpha virt. eigenvalues --   -0.03417   0.03613   0.13476   0.16452   0.39719
 Alpha virt. eigenvalues --    0.47743   0.53859   0.54662   0.62566   0.64237
 Alpha virt. eigenvalues --    0.68676   0.82665   0.91430   1.03059   1.12717

 Mulliken charges:
               1
     1  C   -0.156370
     2  C   -0.251953
     3  H    0.203210
     4  H    0.205113
 Sum of Mulliken charges =  -0.00000

 Dipole moment (field-independent basis, Debye):
    X=             -0.4139    Y=              1.0783    Z=              0.0309  Tot=              1.1554
 Quadrupole moment (field-independent basis, Debye-Ang):
   XX=             -8.1360   YY=            -12.4528   ZZ=            -13.2791
   XY=              0.4275   XZ=             -0.1987   YZ=              0.0034

 Normal termination of Gaussian 16 at Thu Dec 26 10:46:34 2024.
