 Gaussian 16, Revision A.03,
 Gaussian 16:  ES64L-G16RevA.03 25-Dec-2016

 ----------------
 # b3lyp/6-31g(d)
 ----------------

 --------------------
 tmpdir/M3_ref_32.gjf
 --------------------
 Symbolic Z-matrix:
 Charge =  0 Multiplicity = 1

                         Standard orientation:
 ---------------------------------------------------------------------
 Center     Atomic      Atomic             Coordinates (Angstroms)
 Number     Number       Type             X           Y           Z
 ---------------------------------------------------------------------
      1          6           0        0.761736   -0.010555   -0.005114
      2          6           0       -0.766017    0.001506    0.001776
      3          1           0       -1.119707    0.769525    0.699248
      4          1           0        1.185819    1.021551   -0.294192
      5          1           0        1.145663   -0.221835    1.003004
      6          1           0        1.131004   -0.802995   -0.677244
      7          1           0       -1.192367   -0.990800    0.284343
      8          1           0       -1.124726    0.278850   -0.995131
 ---------------------------------------------------------------------

 SCF Done:  E(RB3LYP) =  -79.8273353260     A.U. after   11 cycles

 The electronic state is 1-A.
 Alpha  occ. eigenvalues --  -10.17845 -10.17435  -0.74681  -0.60517  -0.43334
 Alpha  occ. eigenvalues --   -0.42776  -0.35857  -0.34113  -0.33522
 Alpha virt. eigenvalues --    0.09964   0.14729   0.16117   0.16410   0.18390
 Alpha virt. eigenvalues --    0.18763   0.23981   0.51075   0.54785   0.55722
 Alpha virt. eigenvalues --    0.62257   0.64800   0.66809   0.85891   0.87782

 Mulliken charges:
               1
     1  C   -0.425183
     2  C   -0.426381
     3  H    0.144872
     4  H    0.131034
     5  H    0.144543
     6  H    0.144749
     7  H    0.140716
     8  H    0.145650
 Sum of Mulliken charges =   0.00000

 Dipole moment (field-independent basis, Debye):
    X=             -0.0220    Y=             -0.0102    Z=              0.0218  Tot=              0.0326
 Quadrupole moment (field-independent basis, Debye-Ang):
   XX=            -15.5299   YY=            -14.5872   ZZ=            -14.8341
   XY=              0.0235   XZ=              0.0409   YZ=              0.0427

 Normal termination of Gaussian 16 at Thu Dec 26 10:46:03 2024.
