 Gaussian 16, Revision A.03,
 Gaussian 16:  ES64L-G16RevA.03 25-Dec-2016

 ----------------
 # b3lyp/6-31g(d)
 ----------------

 --------------------
 tmpdir/M3_ref_21.gjf
 --------------------
 Symbolic Z-matrix:
 Charge =  0 Multiplicity = 1

                         Standard orientation:
 ---------------------------------------------------------------------
 Center     Atomic      Atomic             Coordinates (Angstroms)
 Number     Number       Type             X           Y           Z
 ---------------------------------------------------------------------
      1          7           0        0.745052    0.025400   -0.153274
      2          6           0       -0.711095   -0.010885    0.016719
      3          1           0       -1.068177    0.998549   -0.232026
      4          1           0        1.178920   -0.920236    0.369566
      5          1           0        1.106334    0.784157    0.427062
      6          1           0       -0.991816   -0.217316    1.062978
      7          1           0       -1.174058   -0.757644   -0.654977
 ---------------------------------------------------------------------

 SCF Done:  E(RB3LYP) =  -95.8396910627     A.U. after   11 cycles

 The electronic state is 1-A.
 Alpha  occ. eigenvalues --  -14.32233 -10.20147  -0.86107  -0.64625  -0.46949
 Alpha  occ. eigenvalues --   -0.43300  -0.39526  -0.35598  -0.23255
 Alpha virt. eigenvalues --    0.06203   0.12583   0.14169   0.17562   0.17947
 Alpha virt. eigenvalues --    0.23185   0.54591   0.56527   0.58907   0.72057
 Alpha virt. eigenvalues --    0.74672   0.79906   0.83273   0.87028   0.91541

 Mulliken charges:
               1
     1  N   -0.677895
     2  C   -0.298381
     3  H    0.151195
     4  H    0.247557
     5  H    0.297316
     6  H    0.124362
     7  H    0.155845
 Sum of Mulliken charges =  -0.00000

 Dipole moment (field-independent basis, Debye):
    X=             -0.3566    Y=             -0.0319    Z=              1.5878  Tot=              1.6277
 Quadrupole moment (field-independent basis, Debye-Ang):
   XX=            -14.1300   YY=            -12.5901   ZZ=            -15.0733
   XY=             -0.1211   XZ=              2.2651   YZ=              0.2039

 Normal termination of Gaussian 16 at Thu Dec 26 10:46:01 2024.
