 Gaussian 16, Revision A.03,
 Gaussian 16:  ES64L-G16RevA.03 25-Dec-2016

 ----------------
 # b3lyp/6-31g(d)
 ----------------

 --------------------
 tmpdir/M3_ref_23.gjf
 --------------------
 Symbolic Z-matrix:
 Charge =  0 Multiplicity = 1

                         Standard orientation:
 ---------------------------------------------------------------------
 Center     Atomic      Atomic             Coordinates (Angstroms)
 Number     Number       Type             X           Y           Z
 ---------------------------------------------------------------------
      1          7           0        1.204941   -0.323412   -0.149861
      2          6           0        0.047138    0.549211    0.070592
      3          6           0       -1.261758   -0.232084   -0.032321
      4          1           0        1.347134   -0.961070    0.813989
      5          1           0        2.040353    0.264048   -0.151445
      6          1           0        0.095349    1.316977   -0.714615
      7          1           0        0.106164    1.062208    1.044979
      8          1           0       -2.153550    0.419810    0.129014
      9          1           0       -1.323616   -0.708284   -1.017625
     10          1           0       -1.258704   -1.032565    0.715100
 ---------------------------------------------------------------------

 SCF Done:  E(RB3LYP) =  -135.157310598     A.U. after   12 cycles

 The electronic state is 1-A.
 Alpha  occ. eigenvalues --  -14.32160 -10.20424 -10.17155  -0.86654  -0.71937
 Alpha  occ. eigenvalues --   -0.59148  -0.47332  -0.45648  -0.40320  -0.36369
 Alpha  occ. eigenvalues --   -0.35916  -0.33593  -0.23431
 Alpha virt. eigenvalues --    0.06226   0.11838   0.13158   0.16398   0.16551
 Alpha virt. eigenvalues --    0.18200   0.19853   0.23681   0.25069   0.53226
 Alpha virt. eigenvalues --    0.55334   0.56508   0.58122   0.67218   0.67862

 Mulliken charges:
               1
     1  N   -0.679758
     2  C   -0.128121
     3  C   -0.422938
     4  H    0.244788
     5  H    0.297554
     6  H    0.139998
     7  H    0.115497
     8  H    0.135281
     9  H    0.159218
    10  H    0.138480
 Sum of Mulliken charges =  -0.00000

 Dipole moment (field-independent basis, Debye):
    X=              0.2936    Y=              0.8517    Z=              1.2166  Tot=              1.5138
 Quadrupole moment (field-independent basis, Debye-Ang):
   XX=            -19.1399   YY=            -20.9863   ZZ=            -20.9094
   XY=              1.0732   XZ=              1.7402   YZ=             -1.7551

 Normal termination of Gaussian 16 at Thu Dec 26 10:46:03 2024.
