 Gaussian 16, Revision A.03,
 Gaussian 16:  ES64L-G16RevA.03 25-Dec-2016

 ----------------
 # b3lyp/6-31g(d)
 ----------------

 -------------------
 tmpdir/M3_ref_6.gjf
 -------------------
 Symbolic Z-matrix:
 Charge =  0 Multiplicity = 1

                         Standard orientation:
 ---------------------------------------------------------------------
 Center     Atomic      Atomic             Coordinates (Angstroms)
 Number     Number       Type             X           Y           Z
 ---------------------------------------------------------------------
      1          6           0       -0.832018    0.158600   -0.000280
      2          6           0        0.546401    0.650174   -0.000570
      3          6           0        1.590742   -0.484600   -0.000660
      4          6           0       -1.964188   -0.261489    0.000168
      5          1           0       -2.964435   -0.630445    0.001292
      6          1           0        0.703227    1.292082    0.878009
      7          1           0        0.701417    1.294454   -0.878126
      8          1           0        2.626408   -0.096636    0.005570
      9          1           0        1.446967   -1.121119   -0.881336
     10          1           0        1.440793   -1.114445    0.882644
 ---------------------------------------------------------------------

 SCF Done:  E(RB3LYP) =  -155.966587279     A.U. after   13 cycles

 The electronic state is 1-A.
 Alpha  occ. eigenvalues --  -10.20994 -10.18557 -10.18124 -10.17225  -0.79439
 Alpha  occ. eigenvalues --   -0.71746  -0.63820  -0.52276  -0.46438  -0.45645
 Alpha  occ. eigenvalues --   -0.39685  -0.37134  -0.36254  -0.25942  -0.25833
 Alpha virt. eigenvalues --    0.05614   0.06277   0.11073   0.13217   0.15077
 Alpha virt. eigenvalues --    0.15468   0.16972   0.20286   0.23097   0.26268
 Alpha virt. eigenvalues --    0.42558   0.46404   0.52542   0.52912   0.55216

 Mulliken charges:
               1
     1  C    0.323808
     2  C   -0.393286
     3  C   -0.436310
     4  C   -0.484347
     5  H    0.183887
     6  H    0.170394
     7  H    0.170294
     8  H    0.146450
     9  H    0.159544
    10  H    0.159566
 Sum of Mulliken charges =  -0.00000

 Dipole moment (field-independent basis, Debye):
    X=              0.6307    Y=              0.1351    Z=              0.0041  Tot=              0.6450
 Quadrupole moment (field-independent basis, Debye-Ang):
   XX=            -21.7382   YY=            -24.9613   ZZ=            -25.4806
   XY=              1.8158   XZ=              0.0035   YZ=              0.0058

 Normal termination of Gaussian 16 at Thu Dec 26 10:45:55 2024.
