 Gaussian 16, Revision A.03,
 Gaussian 16:  ES64L-G16RevA.03 25-Dec-2016

 ----------------
 # b3lyp/6-31g(d)
 ----------------

 --------------------
 tmpdir/M3_ref_35.gjf
 --------------------
 Symbolic Z-matrix:
 Charge =  0 Multiplicity = 1

                         Standard orientation:
 ---------------------------------------------------------------------
 Center     Atomic      Atomic             Coordinates (Angstroms)
 Number     Number       Type             X           Y           Z
 ---------------------------------------------------------------------
      1          6           0        1.505505    0.156549    0.001915
      2          6           0        0.119747    0.627021    0.005544
      3          6           0       -0.907160   -0.523524   -0.002996
      4          6           0       -2.345873   -0.009417   -0.007946
      5          6           0        2.643952   -0.246204   -0.001397
      6          1           0        3.649712   -0.599838   -0.005033
      7          1           0       -0.046763    1.272950   -0.868293
      8          1           0       -0.045174    1.262343    0.887811
      9          1           0       -0.753782   -1.164280    0.872974
     10          1           0       -0.747526   -1.144448   -0.890907
     11          1           0       -3.100333   -0.880877   -0.009790
     12          1           0       -2.549274    0.562541    0.908477
     13          1           0       -2.503887    0.665062   -0.865959
 ---------------------------------------------------------------------

 SCF Done:  E(RB3LYP) =  -195.278566723     A.U. after   13 cycles

 The electronic state is 1-A.
 Alpha  occ. eigenvalues --  -10.20754 -10.18912 -10.18511 -10.18026 -10.17115
 Alpha  occ. eigenvalues --   -0.80542  -0.73893  -0.68304  -0.59704  -0.52311
 Alpha  occ. eigenvalues --   -0.47241  -0.46103  -0.41764  -0.40105  -0.36145
 Alpha  occ. eigenvalues --   -0.34891  -0.33908  -0.25762  -0.25760
 Alpha virt. eigenvalues --    0.05886   0.06413   0.09302   0.13185   0.13623
 Alpha virt. eigenvalues --    0.13841   0.15355   0.16443   0.18608   0.20952
 Alpha virt. eigenvalues --    0.24486   0.25713   0.26121   0.43547   0.46871

 Mulliken charges:
               1
     1  C    0.356259
     2  C   -0.395605
     3  C   -0.247272
     4  C   -0.435266
     5  C   -0.520382
     6  H    0.184337
     7  H    0.166207
     8  H    0.166679
     9  H    0.149218
    10  H    0.149858
    11  H    0.137019
    12  H    0.144807
    13  H    0.144141
 Sum of Mulliken charges =   0.00000

 Dipole moment (field-independent basis, Debye):
    X=             -0.6829    Y=              0.0998    Z=              0.0224  Tot=              0.6905
 Quadrupole moment (field-independent basis, Debye-Ang):
   XX=            -29.5931   YY=            -31.5598   ZZ=            -31.9652
   XY=             -1.3211   XZ=             -0.1239   YZ=             -0.0764

 Normal termination of Gaussian 16 at Thu Dec 26 10:46:10 2024.
